! TOUCHSTONE file generated by CST DESIGN STUDIO
! Date and time: Tue Feb  4 14:30:04 2025
! Project name: C:\Work\MatlabApps\UnitCellOptimizationMatlab\CST\unitcell.cst
! Tree item: Tasks\Sweep1\SPara1\S-Parameters
! Header version: 2024
! Port assignment regex: !\s*Touchstone port\s*([0-9]+)\s*=\s*(CST MWS port|CST DES external port|CST DES block port)\s*(.+)\s* \(\"(.*)\"\)(\s*mode\s*([0-9]+))?.*
! Touchstone port assignment:
! Touchstone port 1 = CST DES external port 1 ("")
# GHz S MA R 50
9                    0.770571312     -97.1907763
9.001                0.769735715      -97.416999
9.002                0.768897311     -97.6441018
9.003                0.768056106     -97.8720884
9.004                0.767212103     -98.1009631
9.005                 0.76636531     -98.3307296
9.006                0.765515731      -98.561392
9.007                0.764663372     -98.7929543
9.008                0.763808239     -99.0254205
9.009                 0.76295034     -99.2587946
9.01                  0.76208968     -99.4930807
9.011                0.761226268     -99.7282828
9.012                0.760360111      -99.964405
9.013                0.759491216     -100.201451
9.014                0.758619593     -100.439426
9.015                0.757745248     -100.678332
9.016                0.756868193     -100.918176
9.017                0.755988435     -101.158959
9.018                0.755105985     -101.400687
9.019                0.754220852     -101.643364
9.02                 0.753333046     -101.886994
9.021                 0.75244258     -102.131581
9.022                0.751549463     -102.377129
9.023                0.750653707     -102.623642
9.024                0.749755325     -102.871125
9.025                0.748854327     -103.119581
9.026                0.747950728     -103.369015
9.027                0.747044541     -103.619431
9.028                0.746135777     -103.870833
9.029                0.745224453     -104.123226
9.03                 0.744310582     -104.376613
9.031                0.743394178     -104.630999
9.032                0.742475258     -104.886389
9.033                0.741553836     -105.142785
9.034                0.740629929     -105.400193
9.035                0.739703553     -105.658616
9.036                0.738774725      -105.91806
9.037                0.737843463     -106.178528
9.038                0.736909785     -106.440024
9.039                0.735973709     -106.702553
9.04                 0.735035253     -106.966119
9.041                0.734094438     -107.230726
9.042                0.733151282     -107.496378
9.043                0.732205807      -107.76308
9.044                0.731258033     -108.030836
9.045                0.730307981     -108.299651
9.046                0.729355673     -108.569527
9.047                0.728401132     -108.840471
9.048                0.727444379     -109.112485
9.049                 0.72648544     -109.385575
9.05                 0.725524336     -109.659744
9.051                0.724561094     -109.934997
9.052                0.723595737     -110.211337
9.053                0.722628292      -110.48877
9.054                0.721658783       -110.7673
9.055                0.720687239      -111.04693
9.056                0.719713686     -111.327665
9.057                0.718738151     -111.609509
9.058                0.717760663     -111.892466
9.059                0.716781251     -112.176541
9.06                 0.715799944     -112.461738
9.061                0.714816773      -112.74806
9.062                0.713831767     -113.035513
9.063                0.712844958       -113.3241
9.064                0.711856378     -113.613825
9.065                0.710866059     -113.904693
9.066                0.709874034     -114.196707
9.067                0.708880337     -114.489872
9.068                0.707885002     -114.784193
9.069                0.706888064     -115.079672
9.07                 0.705889558     -115.376314
9.071                0.704889521     -115.674123
9.072                0.703887988     -115.973104
9.073                0.702884999     -116.273259
9.074                0.701880589     -116.574594
9.075                0.700874799     -116.877112
9.076                0.699867668     -117.180818
9.077                0.698859235     -117.485714
9.078                0.697849542     -117.791805
9.079                0.696838629     -118.099095
9.08                 0.695826538     -118.407588
9.081                0.694813313     -118.717287
9.082                0.693798996     -119.028197
9.083                0.692783632     -119.340321
9.084                0.691767265     -119.653663
9.085                 0.69074994     -119.968226
9.086                0.689731704     -120.284015
9.087                0.688712604     -120.601033
9.088                0.687692687     -120.919284
9.089                   0.686672     -121.238771
9.09                 0.685650594     -121.559497
9.091                0.684628517     -121.881467
9.092                 0.68360582     -122.204684
9.093                0.682582553     -122.529151
9.094                0.681558769     -122.854871
9.095                 0.68053452     -123.181849
9.096                0.679509859     -123.510087
9.097                 0.67848484     -123.839588
9.098                0.677459516     -124.170356
9.099                0.676433945     -124.502395
9.1                  0.675408181     -124.835706
9.101                0.674382281     -125.170293
9.102                0.673356303      -125.50616
9.103                0.672330304     -125.843309
9.104                0.671304344     -126.181742
9.105                0.670278483     -126.521464
9.106                 0.66925278     -126.862476
9.107                0.668227296     -127.204782
9.108                0.667202094     -127.548384
9.109                0.666177236     -127.893285
9.11                 0.665152784     -128.239487
9.111                0.664128803     -128.586992
9.112                0.663105357     -128.935804
9.113                0.662082512     -129.285924
9.114                0.661060334     -129.637356
9.115                0.660038889       -129.9901
9.116                0.659018245     -130.344159
9.117                0.657998469     -130.699535
9.118                0.656979631     -131.056231
9.119                0.655961801     -131.414247
9.12                 0.654945048     -131.773586
9.121                0.653929443      -132.13425
9.122                0.652915057      -132.49624
9.123                0.651901964     -132.859558
9.124                0.650890236     -133.224205
9.125                0.649879946     -133.590182
9.126                0.648871168     -133.957492
9.127                0.647863978     -134.326134
9.128                0.646858451     -134.696111
9.129                0.645854663     -135.067423
9.13                  0.64485269     -135.440071
9.131                0.643852611     -135.814056
9.132                0.642854503     -136.189378
9.133                0.641858444     -136.566038
9.134                0.640864514     -136.944038
9.135                0.639872793     -137.323376
9.136                 0.63888336     -137.704054
9.137                0.637896297     -138.086071
9.138                0.636911685     -138.469427
9.139                0.635929605     -138.854124
9.14                 0.634950141     -139.240159
9.141                0.633973375     -139.627534
9.142                0.632999391     -140.016247
9.143                0.632028271     -140.406299
9.144                0.631060102     -140.797688
9.145                0.630094967     -141.190415
9.146                0.629132951     -141.584477
9.147                 0.62817414     -141.979874
9.148                0.627218621     -142.376605
9.149                0.626266478     -142.774669
9.15                   0.6253178     -143.174065
9.151                0.624372672      -143.57479
9.152                0.623431181     -143.976844
9.153                0.622493416     -144.380225
9.154                0.621559464     -144.784931
9.155                0.620629412      -145.19096
9.156                0.619703349      -145.59831
9.157                0.618781362     -146.006979
9.158                0.617863539     -146.416965
9.159                0.616949969     -146.828266
9.16                  0.61604074     -147.240879
9.161                0.615135939     -147.654802
9.162                0.614235654     -148.070032
9.163                0.613339974     -148.486567
9.164                0.612448984     -148.904404
9.165                0.611562773      -149.32354
9.166                0.610681426     -149.743972
9.167                 0.60980503     -150.165699
9.168                0.608933669     -150.588716
9.169                0.608067428     -151.013022
9.17                 0.607206391     -151.438613
9.171                0.606350639     -151.865487
9.172                0.605500254     -152.293641
9.173                0.604655315     -152.723073
9.174                0.603815899     -153.153781
9.175                0.602982082     -153.585762
9.176                0.602153937     -154.019014
9.177                0.601331534     -154.453537
9.178                 0.60051494     -154.889328
9.179                0.599704216     -155.326388
9.18                 0.598899421     -155.764716
9.181                0.598100607     -156.204312
9.182                 0.59730782     -156.645178
9.183                0.596521095     -157.087316
9.184                0.595740463      -157.53073
9.185                0.594965938     -157.975423
9.186                0.594197522     -158.421404
9.187                0.593435201     -158.868678
9.188                0.592678937     -159.317258
9.189                0.591928667     -159.767155
9.19                 0.591184297     -160.218387
9.191                0.590445687     -160.670973
9.192                0.589712649     -161.124937
9.193                0.588984923     -161.580311
9.194                0.588262166      -162.03713
9.195                0.587543916      -162.49544
9.196                 0.58682956     -162.955294
9.197                0.586118282     -163.416758
9.198                0.585408989      -163.87991
9.199                0.584700204     -164.344843
9.2                  0.583989919     -164.811669
9.201                0.583275371     -165.280512
9.202                0.582552712     -165.751511
9.203                 0.58181652     -166.224805
9.204                0.581059057     -166.700495
9.205                 0.58026919     -167.178578
9.206                0.579430867     -167.658776
9.207                0.578521298     -168.140191
9.208                0.577509862     -168.620575
9.209                0.576361709     -169.094969
9.21                 0.575057441     -169.553659
9.211                0.573649745     -169.981299
9.212                0.572351561     -170.363987
9.213                 0.57151224     -170.709873
9.214                0.571310267     -171.058477
9.215                0.571532927     -171.446985
9.216                0.571839271     -171.880542
9.217                0.572037836     -172.344854
9.218                0.572086361     -172.825391
9.219                0.572005772     -173.313132
9.22                 0.571829514     -173.803464
9.221                0.571586568     -174.294268
9.222                0.571298525      -174.78467
9.223                0.570980694      -175.27438
9.224                 0.57064379     -175.763367
9.225                0.570295344     -176.251708
9.226                0.569940709     -176.739515
9.227                 0.56958374     -177.226903
9.228                0.569227261     -177.713982
9.229                 0.56887337     -178.200845
9.23                 0.568523654      -178.68757
9.231                0.568179327     -179.174224
9.232                0.567841332     -179.660861
9.233                0.567510415      179.852477
9.234                0.567187168      179.365756
9.235                0.566872071      178.878948
9.236                0.566565516      178.392033
9.237                0.566267827      177.904997
9.238                0.565979273      177.417829
9.239                0.565700082      176.930522
9.24                 0.565430446      176.443073
9.241                0.565170532       175.95548
9.242                0.564920482      175.467746
9.243                0.564680418      174.979873
9.244                0.564450449      174.491867
9.245                 0.56423067      174.003734
9.246                0.564021163      173.515481
9.247                0.563822002      173.027117
9.248                0.563633249      172.538651
9.249                0.563454963      172.050093
9.25                 0.563287191      171.561452
9.251                0.563129978       171.07274
9.252                0.562983358      170.583967
9.253                0.562847362      170.095144
9.254                0.562722016      169.606282
9.255                0.562607336       169.11739
9.256                0.562503335       168.62848
9.257                0.562410017      168.139561
9.258                 0.56232738      167.650642
9.259                0.562255411      167.161731
9.26                 0.562194091      166.672837
9.261                0.562143384      166.183965
9.262                0.562103246      165.695121
9.263                 0.56207361      165.206308
9.264                0.562054394      164.717529
9.265                0.562045488      164.228785
9.266                 0.56204675      163.740073
9.267                0.562058002       163.25139
9.268                0.562079013       162.76273
9.269                0.562109495      162.274086
9.27                 0.562149081      161.785446
9.271                0.562197309      161.296801
9.272                0.562253596       160.80814
9.273                0.562317216      160.319452
9.274                0.562387258      159.830733
9.275                0.562462604       159.34199
9.276                0.562541887      158.853244
9.277                 0.56262348      158.364546
9.278                0.562705496      157.875986
9.279                 0.56278585      157.387715
9.28                 0.562862407      156.899965
9.281                 0.56293325      156.413065
9.282                0.562997126      155.927459
9.283                0.563054026      155.443691
9.284                0.563105839       154.96237
9.285                 0.56315684      154.484074
9.286                 0.56321371      154.009237
9.287                0.563284827      153.538018
9.288                 0.56337886      153.070228
9.289                0.563503081      152.605347
9.29                 0.563662022      152.142634
9.291                0.563856984      151.681283
9.292                0.564086424      151.220577
9.293                 0.56434689      150.759972
9.294                0.564634057      150.299126
9.295                0.564943552      149.837873
9.296                0.565271461      149.376185
9.297                0.565614551      148.914122
9.298                0.565970304      148.451794
9.299                0.566336843      147.989336
9.3                  0.566712815      147.526885
9.301                0.567097279      147.064573
9.302                0.567489599      146.602522
9.303                0.567889359       146.14084
9.304                0.568296303      145.679623
9.305                0.568710276      145.218953
9.306                0.569131201      144.758903
9.307                0.569559044      144.299535
9.308                0.569993801      143.840903
9.309                0.570435484      143.383055
9.31                 0.570884113      142.926033
9.311                0.571339711      142.469873
9.312                0.571802298      142.014607
9.313                0.572271893      141.560266
9.314                0.572748507      141.106875
9.315                0.573232146      140.654458
9.316                0.573722812      140.203036
9.317                0.574220498      139.752631
9.318                0.574725191       139.30326
9.319                0.575236874      138.854941
9.32                 0.575755522      138.407689
9.321                0.576281107      137.961519
9.322                0.576813595      137.516447
9.323                0.577352948      137.072484
9.324                0.577899122      136.629645
9.325                0.578452073       136.18794
9.326                 0.57901175      135.747382
9.327                0.579578101      135.307982
9.328                0.580151069      134.869749
9.329                0.580730596      134.432695
9.33                 0.581316622      133.996828
9.331                0.581909082      133.562159
9.332                0.582507913      133.128696
9.333                0.583113046      132.696447
9.334                0.583724413      132.265421
9.335                0.584341944      131.835627
9.336                0.584965568      131.407071
9.337                0.585595211      130.979761
9.338                  0.5862308      130.553704
9.339                 0.58687226      130.128907
9.34                 0.587519513      129.705376
9.341                0.588172485      129.283119
9.342                0.588831097       128.86214
9.343                0.589495272      128.442446
9.344                 0.59016493      128.024043
9.345                0.590839991      127.606935
9.346                0.591520378      127.191128
9.347                0.592206008      126.776627
9.348                0.592896803      126.363436
9.349                0.593592681       125.95156
9.35                  0.59429356      125.541004
9.351                0.594999361       125.13177
9.352                0.595710002      124.723864
9.353                0.596425401      124.317289
9.354                0.597145477      123.912048
9.355                0.597870148      123.508144
9.356                0.598599334      123.105582
9.357                0.599332952      122.704362
9.358                0.600070922      122.304489
9.359                0.600813161      121.905965
9.36                  0.60155959      121.508791
9.361                0.602310128      121.112971
9.362                0.603064693      120.718506
9.363                0.603823205      120.325399
9.364                0.604585584       119.93365
9.365                 0.60535175      119.543261
9.366                0.606121623      119.154234
9.367                0.606895125      118.766569
9.368                0.607672175      118.380268
9.369                0.608452696      117.995332
9.37                 0.609236609      117.611761
9.371                0.610023835      117.229556
9.372                0.610814299      116.848718
9.373                0.611607922      116.469246
9.374                0.612404628       116.09114
9.375                 0.61320434      115.714402
9.376                0.614006983       115.33903
9.377                0.614812481      114.965024
9.378                 0.61562076      114.592384
9.379                0.616431745      114.221109
9.38                 0.617245363      113.851199
9.381                 0.61806154      113.482653
9.382                0.618880203       113.11547
9.383                 0.61970128      112.749649
9.384                  0.6205247      112.385189
9.385                 0.62135039      112.022089
9.386                0.622178282      111.660346
9.387                0.623008303      111.299961
9.388                0.623840386       110.94093
9.389                0.624674461      110.583254
9.39                  0.62551046      110.226929
9.391                0.626348315      109.871953
9.392                0.627187959      109.518326
9.393                0.628029325      109.166045
9.394                0.628872349      108.815107
9.395                0.629716963       108.46551
9.396                0.630563104      108.117253
9.397                0.631410708      107.770333
9.398                0.632259712      107.424746
9.399                0.633110051      107.080491
9.4                  0.633961665      106.737565
9.401                0.634814492      106.395965
9.402                0.635668471      106.055689
9.403                0.636523541      105.716733
9.404                0.637379644      105.379094
9.405                 0.63823672       105.04277
9.406                 0.63909471      104.707757
9.407                0.639953558      104.374052
9.408                0.640813206      104.041652
9.409                0.641673597      103.710554
9.41                 0.642534677      103.380754
9.411                0.643396389      103.052249
9.412                 0.64425868      102.725035
9.413                0.645121496      102.399109
9.414                0.645984783      102.074468
9.415                0.646848489      101.751107
9.416                0.647712562      101.429023
9.417                0.648576951      101.108212
9.418                0.649441606      100.788671
9.419                0.650306476      100.470395
9.42                 0.651171512      100.153381
9.421                0.652036665      99.8376247
9.422                0.652901888      99.5231224
9.423                0.653767133      99.2098701
9.424                0.654632354      98.8978636
9.425                0.655497503       98.587099
9.426                0.656362536       98.277572
9.427                0.657227408      97.9692787
9.428                0.658092074      97.6622147
9.429                0.658956491       97.356376
9.43                 0.659820616      97.0517582
9.431                0.660684406      96.7483571
9.432                 0.66154782      96.4461685
9.433                0.662410816      96.1451881
9.434                0.663273354      95.8454114
9.435                0.664135394      95.5468341
9.436                0.664996896      95.2494519
9.437                0.665857822      94.9532604
9.438                0.666718133      94.6582551
9.439                0.667577791      94.3644315
9.44                  0.66843676      94.0717852
9.441                0.669295004      93.7803118
9.442                0.670152485      93.4900067
9.443                 0.67100917      93.2008655
9.444                0.671865023      92.9128835
9.445                0.672720009      92.6260562
9.446                0.673574096      92.3403792
9.447                 0.67442725      92.0558478
9.448                0.675279438      91.7724574
9.449                0.676130629      91.4902034
9.45                 0.676980791      91.2090814
9.451                0.677829893      90.9290866
9.452                0.678677905      90.6502144
9.453                0.679524796      90.3724602
9.454                0.680370539      90.0958194
9.455                0.681215102      89.8202874
9.456                0.682058459      89.5458595
9.457                0.682900582       89.272531
9.458                0.683741442      89.0002974
9.459                0.684581014       88.729154
9.46                 0.685419271      88.4590961
9.461                0.686256187      88.1901191
9.462                0.687091737      87.9222183
9.463                0.687925896       87.655389
9.464                0.688758639      87.3896267
9.465                0.689589942      87.1249267
9.466                0.690419783      86.8612842
9.467                0.691248138      86.5986948
9.468                0.692074984      86.3371536
9.469                  0.6929003      86.0766562
9.47                 0.693724063      85.8171977
9.471                0.694546253      85.5587737
9.472                0.695366849      85.3013795
9.473                 0.69618583      85.0450104
9.474                0.697003177      84.7896618
9.475                0.697818869      84.5353292
9.476                0.698632889      84.2820078
9.477                0.699445217      84.0296932
9.478                0.700255834      83.7783807
9.479                0.701064724      83.5280657
9.48                 0.701871869      83.2787436
9.481                0.702677251        83.03041
9.482                0.703480854      82.7830601
9.483                0.704282662      82.5366896
9.484                0.705082659      82.2912937
9.485                0.705880829      82.0468681
9.486                0.706677157      81.8034081
9.487                0.707471628      81.5609092
9.488                0.708264228       81.319367
9.489                0.709054943       81.078777
9.49                 0.709843759      80.8391347
9.491                0.710630663      80.6004356
9.492                0.711415642      80.3626752
9.493                0.712198682      80.1258491
9.494                0.712979773       79.889953
9.495                0.713758901      79.6549822
9.496                0.714536055      79.4209326
9.497                0.715311223      79.1877996
9.498                0.716084395      78.9555788
9.499                 0.71685556       78.724266
9.5                  0.717624708      78.4938567
9.501                0.718391828      78.2643467
9.502                 0.71915691      78.0357315
9.503                0.719919946      77.8080069
9.504                0.720680925      77.5811685
9.505                0.721439839      77.3552122
9.506                0.722196679      77.1301335
9.507                0.722951437      76.9059284
9.508                0.723704105      76.6825924
9.509                0.724454675      76.4601214
9.51                  0.72520314      76.2385113
9.511                0.725949491      76.0177577
9.512                0.726693723      75.7978565
9.513                0.727435828      75.5788036
9.514                  0.7281758      75.3605947
9.515                0.728913632      75.1432259
9.516                 0.72964932      74.9266929
9.517                0.730382856      74.7109916
9.518                0.731114235       74.496118
9.519                0.731843453      74.2820679
9.52                 0.732570503      74.0688375
9.521                0.733295382      73.8564225
9.522                0.734018084       73.644819
9.523                0.734738606      73.4340229
9.524                0.735456943      73.2240304
9.525                0.736173091      73.0148373
9.526                0.736887046      72.8064399
9.527                0.737598805       72.598834
9.528                0.738308365      72.3920159
9.529                0.739015722      72.1859815
9.53                 0.739720874      71.9807271
9.531                0.740423818      71.7762487
9.532                0.741124551      71.5725425
9.533                0.741823071      71.3696046
9.534                0.742519376      71.1674312
9.535                0.743213464      70.9660186
9.536                0.743905333      70.7653628
9.537                0.744594982      70.5654603
9.538                0.745282408      70.3663071
9.539                0.745967612      70.1678996
9.54                 0.746650591      69.9702341
9.541                0.747331345      69.7733068
9.542                0.748009873      69.5771141
9.543                0.748686174      69.3816522
9.544                0.749360248      69.1869176
9.545                0.750032095      68.9929066
9.546                0.750701715      68.7996156
9.547                0.751369107       68.607041
9.548                0.752034272      68.4151792
9.549                 0.75269721      68.2240266
9.55                 0.753357921      68.0335797
9.551                0.754016407      67.8438349
9.552                0.754672667      67.6547888
9.553                0.755326703      67.4664378
9.554                0.755978515      67.2787785
9.555                0.756628105      67.0918073
9.556                0.757275474      66.9055209
9.557                0.757920623      66.7199158
9.558                0.758563554      66.5349885
9.559                0.759204268      66.3507358
9.56                 0.759842768      66.1671542
9.561                0.760479054      65.9842402
9.562                 0.76111313      65.8019907
9.563                0.761744996      65.6204023
9.564                0.762374655      65.4394716
9.565                 0.76300211      65.2591953
9.566                0.763627362      65.0795702
9.567                0.764250415      64.9005929
9.568                 0.76487127      64.7222603
9.569                0.765489931      64.5445691
9.57                   0.7661064      64.3675161
9.571                0.766720681      64.1910981
9.572                0.767332775      64.0153119
9.573                0.767942687      63.8401543
9.574                0.768550419      63.6656222
9.575                0.769155974      63.4917125
9.576                0.769759356      63.3184219
9.577                0.770360568      63.1457475
9.578                0.770959615      62.9736861
9.579                0.771556498      62.8022346
9.58                 0.772151222        62.63139
9.581                0.772743791      62.4611493
9.582                0.773334208      62.2915094
9.583                0.773922477      62.1224674
9.584                0.774508603      61.9540201
9.585                0.775092588      61.7861647
9.586                0.775674438      61.6188981
9.587                0.776254156      61.4522175
9.588                0.776831747      61.2861199
9.589                0.777407215      61.1206023
9.59                 0.777980563      60.9556619
9.591                0.778551797      60.7912958
9.592                0.779120922      60.6275011
9.593                 0.77968794       60.464275
9.594                0.780252857      60.3016145
9.595                0.780815679       60.139517
9.596                0.781376408      59.9779795
9.597                 0.78193505      59.8169993
9.598                 0.78249161      59.6565736
9.599                0.783046093      59.4966995
9.6                  0.783598503      59.3373745
9.601                0.784148845      59.1785957