! TOUCHSTONE file generated by CST DESIGN STUDIO
! Date and time: Tue Feb  4 13:35:23 2025
! Project name: C:\Work\MatlabApps\UnitCellOptimizationMatlab\CST\unitcell.cst
! Tree item: Tasks\Sweep1\SPara1\S-Parameters
! Header version: 2024
! Port assignment regex: !\s*Touchstone port\s*([0-9]+)\s*=\s*(CST MWS port|CST DES external port|CST DES block port)\s*(.+)\s* \(\"(.*)\"\)(\s*mode\s*([0-9]+))?.*
! Touchstone port assignment:
! Touchstone port 1 = CST DES external port 1 ("")
# GHz S MA R 50
9                     0.57961283       163.75117
9.001                0.579697521      163.245698
9.002                0.579793881       162.74049
9.003                0.579901885      162.235568
9.004                0.580021505      161.730956
9.005                0.580152713      161.226675
9.006                0.580295476      160.722748
9.007                0.580449763      160.219198
9.008                0.580615537      159.716045
9.009                0.580792761      159.213313
9.01                 0.580981396      158.711022
9.011                0.581181401      158.209195
9.012                0.581392733      157.707853
9.013                0.581615346      157.207017
9.014                0.581849193      156.706709
9.015                0.582094226       156.20695
9.016                0.582350394       155.70776
9.017                0.582617644       155.20916
9.018                0.582895923      154.711171
9.019                0.583185172      154.213813
9.02                 0.583485336      153.717106
9.021                0.583796354       153.22107
9.022                0.584118165      152.725725
9.023                0.584450705      152.231091
9.024                0.584793911      151.737186
9.025                0.585147716       151.24403
9.026                0.585512052      150.751642
9.027                0.585886851       150.26004
9.028                 0.58627204      149.769244
9.029                0.586667548       149.27927
9.03                   0.5870733      148.790137
9.031                0.587489223      148.301863
9.032                0.587915239      147.814465
9.033                0.588351269      147.327961
9.034                0.588797236      146.842367
9.035                0.589253058      146.357701
9.036                0.589718654      145.873978
9.037                0.590193941      145.391216
9.038                0.590678834      144.909429
9.039                0.591173249      144.428634
9.04                 0.591677098      143.948847
9.041                0.592190295      143.470081
9.042                 0.59271275      142.992353
9.043                0.593244375      142.515677
9.044                0.593785079      142.040067
9.045                0.594334771      141.565538
9.046                0.594893358      141.092103
9.047                0.595460747      140.619776
9.048                0.596036845      140.148571
9.049                0.596621556      139.678499
9.05                 0.597214785      139.209575
9.051                0.597816437       138.74181
9.052                0.598426413      138.275216
9.053                0.599044617      137.809807
9.054                0.599670951      137.345592
9.055                0.600305316      136.882585
9.056                0.600947612      136.420795
9.057                0.601597741      135.960234
9.058                0.602255601      135.500912
9.059                0.602921093       135.04284
9.06                 0.603594115      134.586027
9.061                0.604274566      134.130484
9.062                0.604962344      133.676219
9.063                0.605657347      133.223243
9.064                0.606359474      132.771563
9.065                0.607068621       132.32119
9.066                0.607784686       131.87213
9.067                0.608507566      131.424393
9.068                0.609237158      130.977986
9.069                0.609973359      130.532917
9.07                 0.610716065      130.089194
9.071                0.611465174      129.646822
9.072                0.612220582      129.205811
9.073                0.612982185      128.766165
9.074                0.613749882      128.327892
9.075                0.614523567      127.890997
9.076                0.615303139      127.455487
9.077                0.616088495      127.021368
9.078                 0.61687953      126.588643
9.079                0.617676144       126.15732
9.08                 0.618478232      125.727403
9.081                0.619285694      125.298896
9.082                0.620098427      124.871804
9.083                0.620916329      124.446132
9.084                0.621739298      124.021883
9.085                0.622567234      123.599062
9.086                0.623400035      123.177672
9.087                0.624237602      122.757716
9.088                0.625079833      122.339198
9.089                 0.62592663      121.922121
9.09                 0.626777893      121.506487
9.091                0.627633522      121.092299
9.092                 0.62849342       120.67956
9.093                0.629357489      120.268271
9.094                0.630225631      119.858436
9.095                0.631097748      119.450055
9.096                0.631973746       119.04313
9.097                0.632853527      118.637663
9.098                0.633736996      118.233655
9.099                0.634624058      117.831108
9.1                   0.63551462      117.430021
9.101                0.636408587      117.030397
9.102                0.637305867      116.632234
9.103                0.638206366      116.235535
9.104                0.639109994      115.840299
9.105                 0.64001666      115.446527
9.106                0.640926271      115.054218
9.107                 0.64183874      114.663372
9.108                0.642753977      114.273989
9.109                0.643671893      113.886068
9.11                   0.6445924      113.499609
9.111                0.645515412      113.114611
9.112                0.646440842      112.731073
9.113                0.647368605      112.348993
9.114                0.648298616      111.968372
9.115                0.649230791      111.589208
9.116                0.650165046      111.211498
9.117                0.651101299      110.835242
9.118                0.652039468      110.460438
9.119                0.652979473      110.087085
9.12                 0.653921231      109.715179
9.121                0.654864666       109.34472
9.122                0.655809696      108.975705
9.123                0.656756246      108.608132
9.124                0.657704237      108.241998
9.125                0.658653593      107.877302
9.126                0.659604238       107.51404
9.127                0.660556099       107.15221
9.128                0.661509101      106.791809
9.129                0.662463171      106.432835
9.13                 0.663418237      106.075284
9.131                0.664374226      105.719154
9.132                 0.66533107      105.364442
9.133                0.666288697      105.011143
9.134                0.667247039      104.659256
9.135                0.668206028      104.308777
9.136                0.669165595      103.959702
9.137                0.670125676      103.612028
9.138                0.671086203      103.265751
9.139                0.672047112      102.920868
9.14                 0.673008339      102.577375
9.141                0.673969821      102.235268
9.142                0.674931495      101.894544
9.143                0.675893299      101.555199
9.144                0.676855173      101.217228
9.145                0.677817057      100.880628
9.146                0.678778891      100.545395
9.147                0.679740617      100.211525
9.148                0.680702177      99.8790129
9.149                0.681663515      99.5478553
9.15                 0.682624575      99.2180478
9.151                0.683585301      98.8895862
9.152                0.684545638      98.5624659
9.153                0.685505534      98.2366829
9.154                0.686464936      97.9122324
9.155                0.687423791      97.5891103
9.156                0.688382048      97.2673119
9.157                0.689339656      96.9468327
9.158                0.690296567      96.6276681
9.159                 0.69125273      96.3098136
9.16                 0.692208098      95.9932645
9.161                0.693162623      95.6780162
9.162                0.694116259       95.364064
9.163                0.695068959      95.0514031
9.164                0.696020679      94.7400289
9.165                0.696971374      94.4299364
9.166                   0.697921      94.1211211
9.167                0.698869514      93.8135779
9.168                0.699816874      93.5073021
9.169                0.700763038      93.2022889
9.17                 0.701707965      92.8985332
9.171                0.702651616      92.5960304
9.172                0.703593951      92.2947753
9.173                0.704534931      91.9947632
9.174                0.705474519       91.695989
9.175                0.706412675      91.3984477
9.176                0.707349365      91.1021345
9.177                0.708284552      90.8070443
9.178                0.709218201      90.5131722
9.179                0.710150276       90.220513
9.18                 0.711080745      89.9290619
9.181                0.712009573      89.6388137
9.182                0.712936728      89.3497635
9.183                0.713862177      89.0619061
9.184                 0.71478589      88.7752367
9.185                0.715707835        88.48975
9.186                0.716627983      88.2054411
9.187                0.717546303      87.9223049
9.188                0.718462766      87.6403363
9.189                0.719377345      87.3595303
9.19                 0.720290011      87.0798818
9.191                0.721200738      86.8013858
9.192                0.722109497      86.5240371
9.193                0.723016265      86.2478308
9.194                0.723921014      85.9727617
9.195                 0.72482372      85.6988248
9.196                0.725724359      85.4260151
9.197                0.726622907      85.1543274
9.198                 0.72751934      84.8837568
9.199                0.728413637      84.6142982
9.2                  0.729305774      84.3459466
9.201                 0.73019573      84.0786969
9.202                0.731083483      83.8125441
9.203                0.731969015      83.5474831
9.204                0.732852303       83.283509
9.205                0.733733328      83.0206168
9.206                0.734612072      82.7588015
9.207                0.735488516       82.498058
9.208                0.736362641      82.2383814
9.209                0.737234429      81.9797667
9.21                 0.738103865       81.722209
9.211                 0.73897093      81.4657033
9.212                0.739835609      81.2102446
9.213                0.740697886      80.9558281
9.214                0.741557746      80.7024488
9.215                0.742415172      80.4501018
9.216                0.743270152      80.1987821
9.217                0.744122671      79.9484851
9.218                0.744972714      79.6992056
9.219                 0.74582027       79.450939
9.22                 0.746665325      79.2036803
9.221                0.747507867      78.9574248
9.222                0.748347884      78.7121675
9.223                0.749185364      78.4679037
9.224                0.750020296      78.2246286
9.225                0.750852669      77.9823375
9.226                0.751682473      77.7410255
9.227                0.752509697       77.500688
9.228                0.753334333      77.2613201
9.229                0.754156369      77.0229172
9.23                 0.754975799      76.7854746
9.231                0.755792613      76.5489876
9.232                0.756606802      76.3134515
9.233                0.757418359      76.0788617
9.234                0.758227276      75.8452135
9.235                0.759033546      75.6125023
9.236                0.759837162      75.3807235
9.237                0.760638117      75.1498725
9.238                0.761436405      74.9199448
9.239                0.762232021      74.6909358
9.24                 0.763024957      74.4628409
9.241                 0.76381521      74.2356557
9.242                0.764602774      74.0093757
9.243                0.765387643      73.7839963
9.244                0.766169815      73.5595131
9.245                0.766949283      73.3359216
9.246                0.767726045      73.1132175
9.247                0.768500097      72.8913962
9.248                0.769271436      72.6704535
9.249                0.770040058      72.4503849
9.25                  0.77080596       72.231186
9.251                 0.77156914      72.0128526
9.252                0.772329595      71.7953803
9.253                0.773087324      71.5787649
9.254                0.773842325      71.3630019
9.255                0.774594595      71.1480872
9.256                0.775344134      70.9340164
9.257                 0.77609094      70.7207855
9.258                0.776835013      70.5083901
9.259                0.777576352      70.2968261
9.26                 0.778314956      70.0860893
9.261                0.779050825      69.8761755
9.262                0.779783959      69.6670806
9.263                0.780514358      69.4588005
9.264                0.781242023      69.2513311
9.265                0.781966953      69.0446683
9.266                0.782689151       68.838808
9.267                0.783408617      68.6337463
9.268                0.784125351       68.429479
9.269                0.784839356      68.2260021
9.27                 0.785550633      68.0233118
9.271                0.786259183      67.8214039
9.272                0.786965009      67.6202746
9.273                0.787668112      67.4199199
9.274                0.788368495       67.220336
9.275                 0.78906616      67.0215189
9.276                 0.78976111      66.8234647
9.277                0.790453347      66.6261696
9.278                0.791142874      66.4296298
9.279                0.791829694      66.2338414
9.28                 0.792513811      66.0388006
9.281                0.793195228      65.8445037
9.282                0.793873947      65.6509469
9.283                0.794549974      65.4581264
9.284                0.795223311      65.2660385
9.285                0.795893962      65.0746796
9.286                0.796561932      64.8840459
9.287                0.797227224      64.6941337
9.288                0.797889843      64.5049394
9.289                0.798549794      64.3164594
9.29                 0.799207079      64.1286901
9.291                0.799861706      63.9416277
9.292                0.800513677      63.7552689
9.293                0.801162999        63.56961
9.294                0.801809675      63.3846474
9.295                0.802453711      63.2003777
9.296                0.803095113      63.0167973
9.297                0.803733884      62.8339028
9.298                0.804370032      62.6516906
9.299                0.805003561      62.4701574
9.3                  0.805634478      62.2892996
9.301                0.806262786      62.1091139
9.302                0.806888493      61.9295969
9.303                0.807511605      61.7507451
9.304                0.808132127      61.5725553
9.305                0.808750065      61.3950241
9.306                0.809365425      61.2181481
9.307                0.809978214       61.041924
9.308                0.810588438      60.8663485
9.309                0.811196103      60.6914184
9.31                 0.811801216      60.5171304
9.311                0.812403783      60.3434812
9.312                 0.81300381      60.1704677
9.313                0.813601306      59.9980866
9.314                0.814196275      59.8263347
9.315                0.814788725      59.6552088
9.316                0.815378663      59.4847058
9.317                0.815966096      59.3148226
9.318                 0.81655103       59.145556
9.319                0.817133473      58.9769028
9.32                 0.817713432      58.8088601
9.321                0.818290914      58.6414248
9.322                0.818865925      58.4745937
9.323                0.819438475      58.3083638
9.324                0.820008568      58.1427321
9.325                0.820576214      57.9776957
9.326                0.821141419      57.8132514
9.327                0.821704191      57.6493964
9.328                0.822264537      57.4861276
9.329                0.822822465      57.3234421
9.33                 0.823377982       57.161337
9.331                0.823931097      56.9998093
9.332                0.824481816      56.8388563
9.333                0.825030147      56.6784749
9.334                0.825576098      56.5186623
9.335                0.826119677      56.3594156
9.336                0.826660891      56.2007321
9.337                0.827199749      56.0426089
9.338                0.827736258      55.8850431
9.339                0.828270426      55.7280321
9.34                 0.828802261       55.571573
9.341                0.829331771       55.415663
9.342                0.829858963      55.2602994
9.343                0.830383847      55.1054796
9.344                0.830906429      54.9512006
9.345                0.831426718        54.79746
9.346                0.831944721      54.6442549
9.347                0.832460448      54.4915827
9.348                0.832973906      54.3394407
9.349                0.833485102      54.1878263
9.35                 0.833994046      54.0367369
9.351                0.834500745      53.8861698
9.352                0.835005208      53.7361225
9.353                0.835507442      53.5865923
9.354                0.836007456      53.4375767
9.355                0.836505258      53.2890731
9.356                0.837000856       53.141079
9.357                0.837494258      52.9935918
9.358                0.837985473      52.8466091
9.359                0.838474509      52.7001283
9.36                 0.838961373      52.5541469
9.361                0.839446075      52.4086625
9.362                0.839928622      52.2636725
9.363                0.840409022      52.1191747
9.364                0.840887285      51.9751664
9.365                0.841363418      51.8316452
9.366                0.841837429      51.6886089
9.367                0.842309327      51.5460549
9.368                0.842779119       51.403981
9.369                0.843246815      51.2623846
9.37                 0.843712422      51.1212635
9.371                0.844175949      50.9806153
9.372                0.844637403      50.8404377
9.373                0.845096794      50.7007283
9.374                0.845554129      50.5614849
9.375                0.846009416      50.4227052
9.376                0.846462665      50.2843868
9.377                0.846913882      50.1465276
9.378                0.847363077      50.0091252
9.379                0.847810257      49.8721774
9.38                  0.84825543       49.735682
9.381                0.848698606      49.5996367
9.382                0.849139791      49.4640393
9.383                0.849578995      49.3288877
9.384                0.850016225      49.1941797
9.385                 0.85045149      49.0599131
9.386                0.850884797      48.9260857
9.387                0.851316156      48.7926953
9.388                0.851745573      48.6597399
9.389                0.852173057      48.5272174
9.39                 0.852598616      48.3951255
9.391                0.853022259      48.2634622
9.392                0.853443993      48.1322254
9.393                0.853863827      48.0014131
9.394                0.854281767      47.8710231
9.395                0.854697824      47.7410534
9.396                0.855112004      47.6115019
9.397                0.855524315      47.4823667
9.398                0.855934766      47.3536457
9.399                0.856343365      47.2253368
9.4                  0.856750119      47.0974381
9.401                0.857155036      46.9699477
9.402                0.857558124      46.8428634
9.403                0.857959392      46.7161833
9.404                0.858358847      46.5899056
9.405                0.858756497      46.4640281
9.406                 0.85915235      46.3385491
9.407                0.859546413      46.2134665
9.408                0.859938695      46.0887785
9.409                0.860329204      45.9644831
9.41                 0.860717946      45.8405784
9.411                 0.86110493      45.7170626
9.412                0.861490164      45.5939338
9.413                0.861873655        45.47119
9.414                0.862255411      45.3488296
9.415                0.862635439      45.2268505
9.416                0.863013748      45.1052511
9.417                0.863390345      44.9840293
9.418                0.863765237      44.8631835
9.419                0.864138433      44.7427119
9.42                 0.864509939      44.6226125
9.421                0.864879763      44.5028837
9.422                0.865247914      44.3835237
9.423                0.865614397      44.2645307
9.424                0.865979221      44.1459028
9.425                0.866342394      44.0276385
9.426                0.866703922       43.909736
9.427                0.867063813      43.7921934
9.428                0.867422075      43.6750092
9.429                0.867778714      43.5581815
9.43                 0.868133739      43.4417087
9.431                0.868487156      43.3255891
9.432                0.868838972       43.209821
9.433                0.869189196      43.0944027
9.434                0.869537834      42.9793326
9.435                0.869884894       42.864609
9.436                0.870230382      42.7502302
9.437                0.870574306      42.6361947
9.438                0.870916673      42.5225007
9.439                 0.87125749      42.4091467
9.44                 0.871596764      42.2961311
9.441                0.871934502      42.1834522
9.442                0.872270712      42.0711084
9.443                  0.8726054      41.9590982
9.444                0.872938573      41.8474199
9.445                0.873270239      41.7360721
9.446                0.873600403       41.625053
9.447                0.873929074      41.5143613
9.448                0.874256258      41.4039953
9.449                0.874581962      41.2939535
9.45                 0.874906192      41.1842344
9.451                0.875228956      41.0748364
9.452                 0.87555026       40.965758
9.453                0.875870112      40.8569978
9.454                0.876188517      40.7485542
9.455                0.876505482      40.6404257
9.456                0.876821015      40.5326109
9.457                0.877135122      40.4251082
9.458                0.877447809      40.3179162
9.459                0.877759083      40.2110335
9.46                  0.87806895      40.1044586
9.461                0.878377418      39.9981901
9.462                0.878684493      39.8922264
9.463                 0.87899018      39.7865663
9.464                0.879294488      39.6812082
9.465                0.879597421      39.5761507
9.466                0.879898987      39.4713925
9.467                0.880199192      39.3669321
9.468                0.880498042      39.2627682
9.469                0.880795544      39.1588994
9.47                 0.881091704      39.0553242
9.471                0.881386528      38.9520413
9.472                0.881680022      38.8490494
9.473                0.881972193      38.7463471
9.474                0.882263047      38.6439331
9.475                 0.88255259      38.5418059
9.476                0.882840828      38.4399643
9.477                0.883127768       38.338407
9.478                0.883413414      38.2371326
9.479                0.883697775      38.1361397
9.48                 0.883980855      38.0354272
9.481                 0.88426266      37.9349937
9.482                0.884543197      37.8348378
9.483                0.884822472      37.7349584
9.484                 0.88510049      37.6353541
9.485                0.885377257      37.5360237
9.486                 0.88565278      37.4369658
9.487                0.885927064      37.3381793
9.488                0.886200114      37.2396628
9.489                0.886471938      37.1414152
9.49                  0.88674254      37.0434351
9.491                0.887011926      36.9457214
9.492                0.887280102      36.8482728
9.493                0.887547074      36.7510881
9.494                0.887812847      36.6541661
9.495                0.888077428      36.5575055
9.496                0.888340821      36.4611052
9.497                0.888603032       36.364964
9.498                0.888864067      36.2690806
9.499                0.889123932      36.1734539
9.5                  0.889382631      36.0780827
9.501                0.889640171      35.9829658
9.502                0.889896556      35.8881021
9.503                0.890151793      35.7934903
9.504                0.890405887      35.6991294
9.505                0.890658842      35.6050182
9.506                0.890910666      35.5111556
9.507                0.891161362      35.4175403
9.508                0.891410936      35.3241714
9.509                0.891659393      35.2310475
9.51                  0.89190674      35.1381677
9.511                 0.89215298      35.0455308
9.512                0.892398119      34.9531357
9.513                0.892642163      34.8609813
9.514                0.892885116      34.7690664
9.515                0.893126984      34.6773901
9.516                0.893367771      34.5859511
9.517                0.893607484      34.4947485
9.518                0.893846126      34.4037812
9.519                0.894083703       34.313048
9.52                 0.894320221      34.2225479
9.521                0.894555683      34.1322799
9.522                0.894790095      34.0422428
9.523                0.895023462      33.9524357
9.524                0.895255789      33.8628575
9.525                0.895487081      33.7735072
9.526                0.895717342      33.6843836
9.527                0.895946577      33.5954859
9.528                0.896174792      33.5068129
9.529                0.896401991      33.4183636
9.53                 0.896628179      33.3301371
9.531                 0.89685336      33.2421323
9.532                 0.89707754      33.1543482
9.533                0.897300722      33.0667838
9.534                0.897522912      32.9794381
9.535                0.897744115      32.8923101
9.536                0.897964335      32.8053989
9.537                0.898183576      32.7187035
9.538                0.898401843      32.6322228
9.539                0.898619141      32.5459559
9.54                 0.898835475      32.4599019
9.541                0.899050848      32.3740598
9.542                0.899265266      32.2884286
9.543                0.899478732      32.2030074
9.544                0.899691252      32.1177952
9.545                0.899902829      32.0327911
9.546                0.900113468      31.9479941
9.547                0.900323174      31.8634034
9.548                0.900531951      31.7790179
9.549                0.900739802      31.6948368
9.55                 0.900946734      31.6108591
9.551                0.901152749       31.527084
9.552                0.901357852      31.4435105
9.553                0.901562048      31.3601376
9.554                 0.90176534      31.2769646
9.555                0.901967732      31.1939905
9.556                 0.90216923      31.1112144
9.557                0.902369837      31.0286354
9.558                0.902569557      30.9462527
9.559                0.902768394      30.8640653
9.56                 0.902966353      30.7820724
9.561                0.903163438       30.700273
9.562                0.903359652      30.6186665
9.563                   0.903555      30.5372518
9.564                0.903749485      30.4560281
9.565                0.903943112      30.3749946
9.566                0.904135885      30.2941503
9.567                0.904327807      30.2134946
9.568                0.904518883      30.1330264
9.569                0.904709116       30.052745
9.57                 0.904898511      29.9726496
9.571                0.905087071      29.8927393
9.572                  0.9052748      29.8130132
9.573                0.905461702      29.7334706
9.574                 0.90564778      29.6541106
9.575                 0.90583304      29.5749325
9.576                0.906017483      29.4959353
9.577                0.906201114      29.4171184
9.578                0.906383938      29.3384808
9.579                0.906565956      29.2600218
9.58                 0.906747174      29.1817406
9.581                0.906927595      29.1036365
9.582                0.907107222      29.0257085
9.583                 0.90728606      28.9479559
9.584                0.907464111       28.870378
9.585                 0.90764138       28.792974
9.586                0.907817869       28.715743
9.587                0.907993584      28.6386844
9.588                0.908168526      28.5617973
9.589                  0.9083427       28.485081
9.59                 0.908516108      28.4085347
9.591                0.908688756      28.3321576
9.592                0.908860645      28.2559491
9.593                 0.90903178      28.1799084
9.594                0.909202164      28.1040346
9.595                  0.9093718      28.0283272
9.596                0.909540692      27.9527852
9.597                0.909708844      27.8774081
9.598                0.909876257       27.802195
9.599                0.910042936      27.7271452
9.6                  0.910208885      27.6522581
9.601                0.910374106      27.5775328