! TOUCHSTONE file generated by CST DESIGN STUDIO
! Date and time: Tue Feb  4 13:58:12 2025
! Project name: C:\Work\MatlabApps\UnitCellOptimizationMatlab\CST\unitcell.cst
! Tree item: Tasks\Sweep1\SPara1\S-Parameters
! Header version: 2024
! Port assignment regex: !\s*Touchstone port\s*([0-9]+)\s*=\s*(CST MWS port|CST DES external port|CST DES block port)\s*(.+)\s* \(\"(.*)\"\)(\s*mode\s*([0-9]+))?.*
! Touchstone port assignment:
! Touchstone port 1 = CST DES external port 1 ("")
# GHz S MA R 50
9                    0.930739446     -76.7153362
9.001                0.930563254     -76.8426167
9.002                0.930387045     -76.9702769
9.003                0.930210819     -77.0983182
9.004                0.930034576     -77.2267422
9.005                0.929858315     -77.3555506
9.006                0.929682035     -77.4847449
9.007                0.929505738     -77.6143267
9.008                0.929329422     -77.7442977
9.009                0.929153087     -77.8746593
9.01                 0.928976733     -78.0054133
9.011                0.928800359     -78.1365613
9.012                0.928623966     -78.2681048
9.013                0.928447552     -78.4000455
9.014                0.928271118     -78.5323851
9.015                0.928094664     -78.6651252
9.016                0.927918188     -78.7982673
9.017                0.927741691     -78.9318132
9.018                0.927565172     -79.0657646
9.019                0.927388631      -79.200123
9.02                 0.927212067     -79.3348902
9.021                 0.92703548     -79.4700678
9.022                0.926858871     -79.6056575
9.023                0.926682237      -79.741661
9.024                 0.92650558     -79.8780799
9.025                0.926328898      -80.014916
9.026                0.926152191     -80.1521709
9.027                0.925975459     -80.2898464
9.028                0.925798702     -80.4279441
9.029                0.925621918     -80.5664659
9.03                 0.925445108     -80.7054133
9.031                0.925268272     -80.8447881
9.032                0.925091408      -80.984592
9.033                0.924914516     -81.1248269
9.034                0.924737596     -81.2654943
9.035                0.924560647     -81.4065961
9.036                 0.92438367      -81.548134
9.037                0.924206663     -81.6901098
9.038                0.924029626     -81.8325252
9.039                0.923852559     -81.9753819
9.04                 0.923675461     -82.1186818
9.041                0.923498332     -82.2624267
9.042                 0.92332117     -82.4066182
9.043                0.923143977     -82.5512582
9.044                0.922966751     -82.6963485
9.045                0.922789492     -82.8418908
9.046                0.922612199      -82.987887
9.047                0.922434873     -83.1343389
9.048                0.922257511     -83.2812482
9.049                0.922080115     -83.4286169
9.05                 0.921902683     -83.5764466
9.051                0.921725215     -83.7247392
9.052                 0.92154771     -83.8734966
9.053                0.921370168     -84.0227206
9.054                0.921192589     -84.1724129
9.055                0.921014972     -84.3225756
9.056                0.920837317     -84.4732103
9.057                0.920659622      -84.624319
9.058                0.920481888     -84.7759034
9.059                0.920304114     -84.9279656
9.06                 0.920126299     -85.0805072
9.061                0.919948444     -85.2335302
9.062                0.919770547     -85.3870365
9.063                0.919592608     -85.5410279
9.064                0.919414627     -85.6955063
9.065                0.919236602     -85.8504736
9.066                0.919058534     -86.0059317
9.067                0.918880423     -86.1618824
9.068                0.918702266     -86.3183277
9.069                0.918524065     -86.4752694
9.07                 0.918345819     -86.6327096
9.071                0.918167526     -86.7906499
9.072                0.917989187     -86.9490925
9.073                0.917810802     -87.1080392
9.074                0.917632368     -87.2674918
9.075                0.917453887     -87.4274524
9.076                0.917275358     -87.5879229
9.077                 0.91709678     -87.7489051
9.078                0.916918152     -87.9104011
9.079                0.916739475     -88.0724127
9.08                 0.916560748     -88.2349419
9.081                 0.91638197     -88.3979906
9.082                0.916203141     -88.5615608
9.083                 0.91602426     -88.7256544
9.084                0.915845327     -88.8902734
9.085                0.915666342     -89.0554197
9.086                0.915487304     -89.2210953
9.087                0.915308212     -89.3873022
9.088                0.915129067     -89.5540422
9.089                0.914949868     -89.7213174
9.09                 0.914770614     -89.8891298
9.091                0.914591305     -90.0574813
9.092                0.914411941     -90.2263738
9.093                0.914232521     -90.3958094
9.094                0.914053044     -90.5657901
9.095                0.913873512     -90.7363177
9.096                0.913693922     -90.9073943
9.097                0.913514275      -91.079022
9.098                0.913334571     -91.2512025
9.099                0.913154808     -91.4239381
9.1                  0.912974987     -91.5972305
9.101                0.912795108     -91.7710819
9.102                 0.91261517     -91.9454943
9.103                0.912435172     -92.1204695
9.104                0.912255115     -92.2960096
9.105                0.912074998     -92.4721167
9.106                0.911894822     -92.6487926
9.107                0.911714585     -92.8260395
9.108                0.911534287     -93.0038592
9.109                0.911353928     -93.1822539
9.11                 0.911173509     -93.3612254
9.111                0.910993028     -93.5407759
9.112                0.910812486     -93.7209073
9.113                0.910631883     -93.9016215
9.114                0.910451217     -94.0829207
9.115                 0.91027049     -94.2648069
9.116                0.910089701     -94.4472819
9.117                0.909908849     -94.6303478
9.118                0.909727935     -94.8140067
9.119                0.909546959     -94.9982605
9.12                 0.909365921     -95.1831113
9.121                 0.90918482     -95.3685609
9.122                0.909003656     -95.5546115
9.123                 0.90882243     -95.7412651
9.124                0.908641142     -95.9285235
9.125                0.908459791     -96.1163889
9.126                0.908278377     -96.3048633
9.127                0.908096901     -96.4939485
9.128                0.907915363     -96.6836467
9.129                0.907733762     -96.8739597
9.13                   0.9075521     -97.0648897
9.131                0.907370375     -97.2564386
9.132                0.907188588     -97.4486083
9.133                 0.90700674     -97.6414009
9.134                 0.90682483     -97.8348184
9.135                0.906642859     -98.0288626
9.136                0.906460827     -98.2235357
9.137                0.906278735     -98.4188395
9.138                0.906096582     -98.6147761
9.139                0.905914368     -98.8113473
9.14                 0.905732095     -99.0085553
9.141                0.905549763     -99.2064018
9.142                0.905367372      -99.404889
9.143                0.905184922     -99.6040187
9.144                0.905002414     -99.8037929
9.145                0.904819848     -100.004213
9.146                0.904637225     -100.205282
9.147                0.904454546     -100.407002
9.148                 0.90427181     -100.609373
9.149                0.904089019     -100.812399
9.15                 0.903906173     -101.016081
9.151                0.903723273      -101.22042
9.152                 0.90354032      -101.42542
9.153                0.903357314     -101.631082
9.154                0.903174255     -101.837407
9.155                0.902991146     -102.044397
9.156                0.902807986     -102.252056
9.157                0.902624776     -102.460383
9.158                0.902441518     -102.669382
9.159                0.902258212     -102.879054
9.16                 0.902074859     -103.089401
9.161                 0.90189146     -103.300424
9.162                0.901708017     -103.512127
9.163                0.901524529     -103.724509
9.164                0.901340999     -103.937574
9.165                0.901157427     -104.151323
9.166                0.900973815     -104.365758
9.167                0.900790164     -104.580881
9.168                0.900606475     -104.796693
9.169                0.900422749     -105.013197
9.17                 0.900238988     -105.230393
9.171                0.900055193     -105.448284
9.172                0.899871365     -105.666872
9.173                0.899687507     -105.886158
9.174                0.899503618     -106.106144
9.175                0.899319702     -106.326832
9.176                 0.89913576     -106.548224
9.177                0.898951792      -106.77032
9.178                0.898767801     -106.993123
9.179                0.898583789     -107.216635
9.18                 0.898399758     -107.440857
9.181                0.898215708      -107.66579
9.182                0.898031643     -107.891438
9.183                0.897847563       -108.1178
9.184                0.897663471     -108.344878
9.185                0.897479369     -108.572675
9.186                0.897295259     -108.801192
9.187                0.897111144      -109.03043
9.188                0.896927024     -109.260392
9.189                0.896742903     -109.491077
9.19                 0.896558782     -109.722489
9.191                0.896374664     -109.954628
9.192                0.896190552     -110.187496
9.193                0.896006448     -110.421094
9.194                0.895822353     -110.655425
9.195                0.895638272     -110.890489
9.196                0.895454205     -111.126287
9.197                0.895270157     -111.362822
9.198                 0.89508613     -111.600094
9.199                0.894902125     -111.838105
9.2                  0.894718147     -112.076856
9.201                0.894534198     -112.316349
9.202                0.894350282     -112.556585
9.203                  0.8941664     -112.797565
9.204                0.893982556     -113.039291
9.205                0.893798753     -113.281763
9.206                0.893614995     -113.524983
9.207                0.893431284     -113.768953
9.208                0.893247623     -114.013673
9.209                0.893064017     -114.259144
9.21                 0.892880469     -114.505368
9.211                0.892696981     -114.752346
9.212                0.892513559     -115.000079
9.213                0.892330204     -115.248567
9.214                0.892146921     -115.497813
9.215                0.891963714     -115.747817
9.216                0.891780586      -115.99858
9.217                0.891597541     -116.250102
9.218                0.891414583     -116.502386
9.219                0.891231717     -116.755432
9.22                 0.891048945     -117.009241
9.221                0.890866273     -117.263814
9.222                0.890683705     -117.519151
9.223                0.890501244     -117.775253
9.224                0.890318896     -118.032122
9.225                0.890136663     -118.289758
9.226                0.889954552     -118.548161
9.227                0.889772567     -118.807333
9.228                0.889590712     -119.067274
9.229                0.889408991     -119.327985
9.23                  0.88922741     -119.589467
9.231                0.889045974     -119.851719
9.232                0.888864687     -120.114744
9.233                0.888683554      -120.37854
9.234                 0.88850258     -120.643109
9.235                0.888321772     -120.908451
9.236                0.888141132     -121.174567
9.237                0.887960668     -121.441457
9.238                0.887780384     -121.709121
9.239                0.887600285      -121.97756
9.24                 0.887420378     -122.246774
9.241                0.887240668     -122.516763
9.242                 0.88706116     -122.787528
9.243                 0.88688186     -123.059069
9.244                0.886702774     -123.331386
9.245                0.886523907     -123.604479
9.246                0.886345267     -123.878348
9.247                0.886166858     -124.152993
9.248                0.885988687     -124.428415
9.249                 0.88581076     -124.704614
9.25                 0.885633083     -124.981588
9.251                0.885455662     -125.259339
9.252                0.885278504     -125.537866
9.253                0.885101616     -125.817169
9.254                0.884925004     -126.097247
9.255                0.884748674     -126.378101
9.256                0.884572634     -126.659731
9.257                0.884396889     -126.942135
9.258                0.884221447     -127.225314
9.259                0.884046315     -127.509267
9.26                   0.8838715     -127.793994
9.261                0.883697009     -128.079495
9.262                0.883522849     -128.365768
9.263                0.883349026     -128.652813
9.264                 0.88317555      -128.94063
9.265                0.883002426     -129.229217
9.266                0.882829663     -129.518575
9.267                0.882657267     -129.808703
9.268                0.882485247     -130.099599
9.269                0.882313611     -130.391263
9.27                 0.882142365     -130.683694
9.271                0.881971517     -130.976892
9.272                0.881801077     -131.270854
9.273                 0.88163105     -131.565581
9.274                0.881461447      -131.86107
9.275                0.881292274     -132.157322
9.276                 0.88112354     -132.454334
9.277                0.880955253     -132.752106
9.278                0.880787421     -133.050636
9.279                0.880620054     -133.349924
9.28                 0.880453158     -133.649967
9.281                0.880286743     -133.950764
9.282                0.880120818     -134.252314
9.283                0.879955391     -134.554616
9.284                 0.87979047     -134.857667
9.285                0.879626065     -135.161467
9.286                0.879462184     -135.466013
9.287                0.879298837     -135.771304
9.288                0.879136032     -136.077338
9.289                0.878973778     -136.384114
9.29                 0.878812085     -136.691629
9.291                0.878650961     -136.999881
9.292                0.878490416     -137.308869
9.293                0.878330459     -137.618591
9.294                0.878171099     -137.929044
9.295                0.878012346     -138.240226
9.296                 0.87785421     -138.552136
9.297                0.877696699      -138.86477
9.298                0.877539823     -139.178127
9.299                0.877383593     -139.492205
9.3                  0.877228017        -139.807
9.301                0.877073105     -140.122511
9.302                0.876918867     -140.438735
9.303                0.876765313     -140.755669
9.304                0.876612453     -141.073311
9.305                0.876460297     -141.391658
9.306                0.876308854     -141.710707
9.307                0.876158134     -142.030456
9.308                0.876008148     -142.350901
9.309                0.875858906     -142.672041
9.31                 0.875710417     -142.993871
9.311                0.875562692     -143.316389
9.312                0.875415742     -143.639592
9.313                0.875269575     -143.963477
9.314                0.875124203      -144.28804
9.315                0.874979636     -144.613278
9.316                0.874835883     -144.939188
9.317                0.874692956     -145.265766
9.318                0.874550865      -145.59301
9.319                 0.87440962     -145.920915
9.32                 0.874269231     -146.249479
9.321                0.874129709     -146.578696
9.322                0.873991064     -146.908565
9.323                0.873853308     -147.239081
9.324                0.873716449      -147.57024
9.325                0.873580499     -147.902038
9.326                0.873445469     -148.234472
9.327                0.873311368     -148.567538
9.328                0.873178207     -148.901231
9.329                0.873045997     -149.235548
9.33                 0.872914748     -149.570485
9.331                0.872784471     -149.906037
9.332                0.872655177     -150.242199
9.333                0.872526875     -150.578969
9.334                0.872399576     -150.916341
9.335                0.872273291     -151.254311
9.336                0.872148031     -151.592874
9.337                0.872023805     -151.932026
9.338                0.871900625     -152.271763
9.339                  0.8717785     -152.612079
9.34                 0.871657441     -152.952971
9.341                0.871537459     -153.294433
9.342                0.871418564      -153.63646
9.343                0.871300766     -153.979048
9.344                0.871184076     -154.322191
9.345                0.871068504     -154.665885
9.346                 0.87095406     -155.010125
9.347                0.870840755     -155.354905
9.348                0.870728599      -155.70022
9.349                0.870617601     -156.046066
9.35                 0.870507773     -156.392437
9.351                0.870399124     -156.739327
9.352                0.870291663     -157.086731
9.353                0.870185403     -157.434644
9.354                0.870080351      -157.78306
9.355                0.869976519     -158.131974
9.356                0.869873915     -158.481381
9.357                 0.86977255     -158.831273
9.358                0.869672434     -159.181647
9.359                0.869573576     -159.532495
9.36                 0.869475986     -159.883813
9.361                0.869379673     -160.235595
9.362                0.869284647     -160.587833
9.363                0.869190917     -160.940524
9.364                0.869098493      -161.29366
9.365                0.869007384     -161.647235
9.366                0.868917598     -162.001244
9.367                0.868829146      -162.35568
9.368                0.868742036     -162.710538
9.369                0.868656277      -163.06581
9.37                 0.868571879      -163.42149
9.371                0.868488848     -163.777573
9.372                0.868407196     -164.134052
9.373                0.868326929      -164.49092
9.374                0.868248057     -164.848171
9.375                0.868170587     -165.205799
9.376                0.868094529     -165.563796
9.377                 0.86801989     -165.922157
9.378                0.867946678     -166.280874
9.379                0.867874902     -166.639942
9.38                 0.867804569     -166.999352
9.381                0.867735687     -167.359099
9.382                0.867668264     -167.719176
9.383                0.867602307     -168.079576
9.384                0.867537824     -168.440292
9.385                0.867474821     -168.801316
9.386                0.867413307     -169.162643
9.387                0.867353287     -169.524265
9.388                 0.86729477     -169.886175
9.389                0.867237761     -170.248367
9.39                 0.867182268     -170.610832
9.391                0.867128297     -170.973564
9.392                0.867075854     -171.336556
9.393                0.867024946       -171.6998
9.394                0.866975578      -172.06329
9.395                0.866927758     -172.427018
9.396                0.866881489     -172.790976
9.397                 0.86683678     -173.155158
9.398                0.866793634     -173.519557
9.399                0.866752057     -173.884164
9.4                  0.866712055     -174.248973
9.401                0.866673633     -174.613975
9.402                0.866636795     -174.979165
9.403                0.866601547     -175.344534
9.404                0.866567893     -175.710074
9.405                0.866535837     -176.075779
9.406                0.866505385     -176.441641
9.407                 0.86647654     -176.807651
9.408                0.866449306     -177.173804
9.409                0.866423687     -177.540091
9.41                 0.866399687     -177.906504
9.411                0.866377309     -178.273037
9.412                0.866356557     -178.639681
9.413                0.866337435     -179.006428
9.414                0.866319944     -179.373272
9.415                0.866304088     -179.740205
9.416                0.866289871      179.892782
9.417                0.866277293      179.525695
9.418                0.866266359      179.158543
9.419                0.866257069      178.791333
9.42                 0.866249427      178.424072
9.421                0.866243433      178.056769
9.422                 0.86623909      177.689431
9.423                0.866236399      177.322066
9.424                0.866235362      176.954681
9.425                 0.86623598      176.587285
9.426                0.866238254      176.219884
9.427                0.866242184      175.852487
9.428                0.866247772      175.485102
9.429                0.866255018      175.117735
9.43                 0.866263922      174.750394
9.431                0.866274485      174.383089
9.432                0.866286706      174.015825
9.433                0.866300586       173.64861
9.434                0.866316124      173.281453
9.435                0.866333319      172.914361
9.436                 0.86635217      172.547342
9.437                0.866372678      172.180403
9.438                0.866394841      171.813551
9.439                0.866418657      171.446796
9.44                 0.866444126      171.080143
9.441                0.866471245      170.713601
9.442                0.866500013      170.347177
9.443                0.866530429      169.980878
9.444                0.866562489      169.614713
9.445                0.866596192      169.248689
9.446                0.866631536      168.882813
9.447                0.866668518      168.517093
9.448                0.866707134      168.151537
9.449                0.866747383      167.786151
9.45                 0.866789261      167.420942
9.451                0.866832765       167.05592
9.452                0.866877892       166.69109
9.453                0.866924637      166.326461
9.454                0.866972997      165.962039
9.455                0.867022969      165.597831
9.456                0.867074548      165.233846
9.457                0.867127731       164.87009
9.458                0.867182511      164.506571
9.459                0.867238886      164.143295
9.46                 0.867296851       163.78027
9.461                  0.8673564      163.417503
9.462                0.867417529      163.055001
9.463                0.867480233      162.692771
9.464                0.867544506       162.33082
9.465                0.867610342      161.969155
9.466                0.867677737      161.607783
9.467                0.867746685      161.246711
9.468                0.867817179      160.885945
9.469                0.867889214      160.525493
9.47                 0.867962783      160.165362
9.471                0.868037881      159.805557
9.472                0.868114501      159.446087
9.473                0.868192636      159.086956
9.474                0.868272279      158.728173
9.475                0.868353424      158.369744
9.476                0.868436065      158.011675
9.477                0.868520193      157.653973
9.478                0.868605801      157.296643
9.479                0.868692883      156.939694
9.48                  0.86878143       156.58313
9.481                0.868871436      156.226959
9.482                0.868962893      155.871187
9.483                0.869055792      155.515819
9.484                0.869150126      155.160862
9.485                0.869245886      154.806322
9.486                0.869343066      154.452206
9.487                0.869441656      154.098519
9.488                0.869541648      153.745267
9.489                0.869643033      153.392456
9.49                 0.869745804      153.040093
9.491                0.869849951      152.688182
9.492                0.869955466       152.33673
9.493                0.870062339      151.985743
9.494                0.870170563      151.635225
9.495                0.870280127      151.285184
9.496                0.870391023      150.935624
9.497                0.870503242       150.58655
9.498                0.870616774      150.237969
9.499                0.870731609      149.889886
9.5                  0.870847739      149.542306
9.501                0.870965154      149.195235
9.502                0.871083845      148.848677
9.503                0.871203801      148.502638
9.504                0.871325013      148.157123
9.505                0.871447471      147.812137
9.506                0.871571165      147.467686
9.507                0.871696085      147.123773
9.508                0.871822222      146.780405
9.509                0.871949565      146.437586
9.51                 0.872078104       146.09532
9.511                0.872207829      145.753613
9.512                0.872338729      145.412469
9.513                0.872470795      145.071893
9.514                0.872604016       144.73189
9.515                0.872738382      144.392463
9.516                0.872873881      144.053618
9.517                0.873010505      143.715358
9.518                0.873148242      143.377689
9.519                0.873287082      143.040614
9.52                 0.873427013      142.704138
9.521                0.873568027      142.368265
9.522                0.873710111      142.032999
9.523                0.873853256      141.698344
9.524                 0.87399745      141.364304
9.525                0.874142683      141.030883
9.526                0.874288944      140.698085
9.527                0.874436222      140.365913
9.528                0.874584507      140.034372
9.529                0.874733788      139.703466
9.53                 0.874884053      139.373197
9.531                0.875035293      139.043569
9.532                0.875187496      138.714587
9.533                0.875340651      138.386253
9.534                0.875494748       138.05857
9.535                0.875649775      137.731543
9.536                0.875805723      137.405175
9.537                0.875962579      137.079468
9.538                0.876120333      136.754427
9.539                0.876278975      136.430053
9.54                 0.876438492      136.106351
9.541                0.876598876      135.783322
9.542                0.876760114      135.460971
9.543                0.876922195        135.1393
9.544                 0.87708511      134.818312
9.545                0.877248847       134.49801
9.546                0.877413395      134.178396
9.547                0.877578743      133.859473
9.548                0.877744882      133.541244
9.549                0.877911799      133.223711
9.55                 0.878079485      132.906877
9.551                0.878247928      132.590744
9.552                0.878417118      132.275315
9.553                0.878587044      131.960592
9.554                0.878757696      131.646577
9.555                0.878929062      131.333273
9.556                0.879101133      131.020681
9.557                0.879273898      130.708805
9.558                0.879447346      130.397645
9.559                0.879621467      130.087204
9.56                  0.87979625      129.777484
9.561                0.879971685      129.468487
9.562                0.880147761      129.160215
9.563                0.880324469      128.852669
9.564                0.880501798      128.545851
9.565                0.880679737      128.239764
9.566                0.880858276      127.934408
9.567                0.881037406      127.629785
9.568                0.881217116      127.325897
9.569                0.881397395      127.022746
9.57                 0.881578235      126.720332
9.571                0.881759624      126.418657
9.572                0.881941554      126.117723
9.573                0.882124013      125.817531
9.574                0.882306993      125.518082
9.575                0.882490483      125.219377
9.576                0.882674473      124.921418
9.577                0.882858955      124.624206
9.578                0.883043917      124.327741
9.579                0.883229351      124.032025
9.58                 0.883415248      123.737058
9.581                0.883601597      123.442843
9.582                0.883788389      123.149378
9.583                0.883975615      122.856667
9.584                0.884163265      122.564708
9.585                0.884351331      122.273503
9.586                0.884539803      121.983053
9.587                0.884728671      121.693359
9.588                0.884917927       121.40442
9.589                0.885107562      121.116238
9.59                 0.885297567      120.828813
9.591                0.885487933      120.542145
9.592                 0.88567865      120.256236
9.593                0.885869711      119.971085
9.594                0.886061107      119.686692
9.595                0.886252828      119.403059
9.596                0.886444867      119.120186
9.597                0.886637214      118.838072
9.598                0.886829862      118.556718
9.599                0.887022802      118.276124
9.6                  0.887216025      117.996291
9.601                0.887409524      117.717218