! TOUCHSTONE file generated by CST DESIGN STUDIO
! Date and time: Tue Feb  4 16:44:49 2025
! Project name: C:\Work\MatlabApps\UnitCellOptimizationMatlab\CST\unitcell.cst
! Tree item: Tasks\Sweep1\SPara1\S-Parameters
! Header version: 2024
! Port assignment regex: !\s*Touchstone port\s*([0-9]+)\s*=\s*(CST MWS port|CST DES external port|CST DES block port)\s*(.+)\s* \(\"(.*)\"\)(\s*mode\s*([0-9]+))?.*
! Touchstone port assignment:
! Touchstone port 1 = CST DES external port 1 ("")
# GHz S MA R 50
9                    0.953368822     -46.5037528
9.001                0.953255585     -46.5602948
9.002                0.953141952     -46.6169566
9.003                0.953027921     -46.6737386
9.004                 0.95291349     -46.7306412
9.005                0.952798658     -46.7876647
9.006                0.952683422     -46.8448096
9.007                0.952567782     -46.9020762
9.008                0.952451735     -46.9594649
9.009                 0.95233528     -47.0169762
9.01                 0.952218415     -47.0746103
9.011                0.952101139     -47.1323677
9.012                0.951983449     -47.1902488
9.013                0.951865345      -47.248254
9.014                0.951746823     -47.3063837
9.015                0.951627883     -47.3646383
9.016                0.951508523     -47.4230181
9.017                0.951388741     -47.4815236
9.018                0.951268535     -47.5401551
9.019                0.951147903     -47.5989132
9.02                 0.951026844     -47.6577982
9.021                0.950905356     -47.7168104
9.022                0.950783437     -47.7759504
9.023                0.950661085     -47.8352185
9.024                0.950538299     -47.8946151
9.025                0.950415076     -47.9541407
9.026                0.950291415     -48.0137956
9.027                0.950167314     -48.0735803
9.028                0.950042771     -48.1334952
9.029                0.949917784     -48.1935408
9.03                 0.949792351     -48.2537174
9.031                0.949666471     -48.3140254
9.032                0.949540142     -48.3744654
9.033                0.949413361     -48.4350377
9.034                0.949286126     -48.4957427
9.035                0.949158437      -48.556581
9.036                0.949030291     -48.6175528
9.037                0.948901685     -48.6786587
9.038                0.948772619     -48.7398991
9.039                0.948643089     -48.8012745
9.04                 0.948513095     -48.8627852
9.041                0.948382634     -48.9244317
9.042                0.948251704     -48.9862145
9.043                0.948120303      -49.048134
9.044                0.947988429     -49.1101907
9.045                0.947856081      -49.172385
9.046                0.947723255     -49.2347173
9.047                0.947589951     -49.2971881
9.048                0.947456166     -49.3597979
9.049                0.947321898     -49.4225471
9.05                 0.947187145     -49.4854362
9.051                0.947051905     -49.5484656
9.052                0.946916175     -49.6116358
9.053                0.946779955     -49.6749473
9.054                0.946643241     -49.7384005
9.055                0.946506032     -49.8019959
9.056                0.946368325      -49.865734
9.057                0.946230119     -49.9296152
9.058                 0.94609141     -49.9936401
9.059                0.945952198      -50.057809
9.06                  0.94581248     -50.1221225
9.061                0.945672253     -50.1865811
9.062                0.945531516     -50.2511852
9.063                0.945390267     -50.3159353
9.064                0.945248502     -50.3808319
9.065                0.945106221     -50.4458755
9.066                 0.94496342     -50.5110666
9.067                0.944820098     -50.5764056
9.068                0.944676252     -50.6418931
9.069                 0.94453188     -50.7075296
9.07                 0.944386981     -50.7733155
9.071                 0.94424155     -50.8392514
9.072                0.944095587     -50.9053377
9.073                0.943949089      -50.971575
9.074                0.943802054     -51.0379638
9.075                0.943654479     -51.1045045
9.076                0.943506362     -51.1711977
9.077                0.943357701     -51.2380439
9.078                0.943208493     -51.3050437
9.079                0.943058736     -51.3721975
9.08                 0.942908428     -51.4395058
9.081                0.942757566     -51.5069692
9.082                0.942606148     -51.5745881
9.083                0.942454172     -51.6423632
9.084                0.942301634      -51.710295
9.085                0.942148534     -51.7783839
9.086                0.941994868     -51.8466305
9.087                0.941840633     -51.9150353
9.088                0.941685828      -51.983599
9.089                 0.94153045     -52.0523219
9.09                 0.941374496     -52.1212047
9.091                0.941217964     -52.1902479
9.092                0.941060852     -52.2594521
9.093                0.940903157     -52.3288177
9.094                0.940744876     -52.3983454
9.095                0.940586007     -52.4680356
9.096                0.940426547      -52.537889
9.097                0.940266494     -52.6079061
9.098                0.940105845     -52.6780875
9.099                0.939944598     -52.7484337
9.1                   0.93978275     -52.8189452
9.101                0.939620298     -52.8896228
9.102                0.939457241     -52.9604668
9.103                0.939293574     -53.0314779
9.104                0.939129296     -53.1026567
9.105                0.938964404     -53.1740038
9.106                0.938798895     -53.2455196
9.107                0.938632767     -53.3172048
9.108                0.938466017     -53.3890601
9.109                0.938298642     -53.4610858
9.11                 0.938130639     -53.5332828
9.111                0.937962006     -53.6056514
9.112                 0.93779274     -53.6781924
9.113                0.937622839     -53.7509064
9.114                0.937452299     -53.8237938
9.115                0.937281117     -53.8968554
9.116                0.937109292     -53.9700917
9.117                 0.93693682     -54.0435034
9.118                0.936763698      -54.117091
9.119                0.936589923     -54.1908551
9.12                 0.936415493     -54.2647964
9.121                0.936240405     -54.3389155
9.122                0.936064656     -54.4132129
9.123                0.935888243     -54.4876894
9.124                0.935711164     -54.5623456
9.125                0.935533414     -54.6371819
9.126                0.935354992     -54.7121992
9.127                0.935175894      -54.787398
9.128                0.934996118      -54.862779
9.129                 0.93481566     -54.9383428
9.13                 0.934634518     -55.0140899
9.131                0.934452688     -55.0900212
9.132                0.934270168     -55.1661372
9.133                0.934086955     -55.2424385
9.134                0.933903045     -55.3189259
9.135                0.933718435     -55.3955999
9.136                0.933533123     -55.4724613
9.137                0.933347106     -55.5495106
9.138                 0.93316038     -55.6267486
9.139                0.932972941     -55.7041759
9.14                 0.932784789     -55.7817931
9.141                0.932595918      -55.859601
9.142                0.932406325     -55.9376003
9.143                0.932216009     -56.0157915
9.144                0.932024965     -56.0941753
9.145                0.931833191     -56.1727525
9.146                0.931640683     -56.2515238
9.147                0.931447437     -56.3304897
9.148                0.931253452     -56.4096511
9.149                0.931058723     -56.4890086
9.15                 0.930863247     -56.5685628
9.151                0.930667021     -56.6483146
9.152                0.930470043     -56.7282645
9.153                0.930272307     -56.8084134
9.154                0.930073812     -56.8887618
9.155                0.929874553     -56.9693106
9.156                0.929674528     -57.0500604
9.157                0.929473734     -57.1310119
9.158                0.929272166      -57.212166
9.159                0.929069821     -57.2935232
9.16                 0.928866696     -57.3750843
9.161                0.928662789       -57.45685
9.162                0.928458094     -57.5388211
9.163                0.928252609     -57.6209984
9.164                 0.92804633     -57.7033824
9.165                0.927839254     -57.7859741
9.166                0.927631378     -57.8687741
9.167                0.927422698     -57.9517832
9.168                0.927213209     -58.0350021
9.169                 0.92700291     -58.1184315
9.17                 0.926791796     -58.2020724
9.171                0.926579864     -58.2859253
9.172                 0.92636711     -58.3699911
9.173                 0.92615353     -58.4542705
9.174                0.925939122     -58.5387643
9.175                 0.92572388     -58.6234733
9.176                0.925507803     -58.7083983
9.177                0.925290886     -58.7935399
9.178                0.925073125     -58.8788991
9.179                0.924854517     -58.9644766
9.18                 0.924635058     -59.0502732
9.181                0.924414744     -59.1362897
9.182                0.924193572     -59.2225268
9.183                0.923971537     -59.3089854
9.184                0.923748637     -59.3956664
9.185                0.923524868     -59.4825704
9.186                0.923300224     -59.5696983
9.187                0.923074704     -59.6570509
9.188                0.922848302     -59.7446291
9.189                0.922621016     -59.8324336
9.19                 0.922392841     -59.9204653
9.191                0.922163773      -60.008725
9.192                0.921933809     -60.0972136
9.193                0.921702945     -60.1859318
9.194                0.921471176     -60.2748805
9.195                0.921238499     -60.3640607
9.196                0.921004909      -60.453473
9.197                0.920770404     -60.5431183
9.198                0.920534979     -60.6329976
9.199                0.920298629     -60.7231116
9.2                  0.920061351     -60.8134613
9.201                0.919823141     -60.9040474
9.202                0.919583995     -60.9948709
9.203                0.919343909     -61.0859326
9.204                0.919102879     -61.1772335
9.205                  0.9188609     -61.2687743
9.206                0.918617968      -61.360556
9.207                 0.91837408     -61.4525794
9.208                0.918129231     -61.5448455
9.209                0.917883417     -61.6373551
9.21                 0.917636634     -61.7301092
9.211                0.917388878     -61.8231086
9.212                0.917140145     -61.9163542
9.213                0.916890429      -62.009847
9.214                0.916639728     -62.1035879
9.215                0.916388036     -62.1975778
9.216                0.916135351     -62.2918175
9.217                0.915881666     -62.3863081
9.218                0.915626978     -62.4810505
9.219                0.915371283     -62.5760456
9.22                 0.915114576     -62.6712943
9.221                0.914856853     -62.7667976
9.222                 0.91459811     -62.8625564
9.223                0.914338342     -62.9585717
9.224                0.914077545     -63.0548444
9.225                0.913815714     -63.1513755
9.226                0.913552845      -63.248166
9.227                0.913288933     -63.3452167
9.228                0.913023975     -63.4425288
9.229                0.912757965     -63.5401031
9.23                   0.9124909     -63.6379407
9.231                0.912222773     -63.7360425
9.232                0.911953582     -63.8344094
9.233                0.911683322     -63.9330426
9.234                0.911411987      -64.031943
9.235                0.911139573     -64.1311116
9.236                0.910866077     -64.2305494
9.237                0.910591492     -64.3302574
9.238                0.910315815     -64.4302366
9.239                0.910039041     -64.5304881
9.24                 0.909761165     -64.6310128
9.241                0.909482182     -64.7318118
9.242                0.909202089     -64.8328862
9.243                0.908920879     -64.9342368
9.244                0.908638549     -65.0358649
9.245                0.908355094     -65.1377714
9.246                0.908070508     -65.2399574
9.247                0.907784788      -65.342424
9.248                0.907497928     -65.4451721
9.249                0.907209923     -65.5482029
9.25                  0.90692077     -65.6515174
9.251                0.906630462     -65.7551167
9.252                0.906338995     -65.8590019
9.253                0.906046365     -65.9631741
9.254                0.905752565     -66.0676342
9.255                0.905457593     -66.1723835
9.256                0.905161441      -66.277423
9.257                0.904864106     -66.3827538
9.258                0.904565583     -66.4883771
9.259                0.904265867     -66.5942939
9.26                 0.903964952     -66.7005053
9.261                0.903662834     -66.8070124
9.262                0.903359507     -66.9138165
9.263                0.903054968     -67.0209185
9.264                 0.90274921     -67.1283197
9.265                0.902442228     -67.2360212
9.266                0.902134018     -67.3440241
9.267                0.901824575     -67.4523296
9.268                0.901513893     -67.5609387
9.269                0.901201967     -67.6698528
9.27                 0.900888792     -67.7790728
9.271                0.900574364     -67.8886001
9.272                0.900258676     -67.9984357
9.273                0.899941724     -68.1085809
9.274                0.899623502     -68.2190368
9.275                0.899304006     -68.3298047
9.276                 0.89898323     -68.4408856
9.277                0.898661168     -68.5522808
9.278                0.898337817     -68.6639915
9.279                 0.89801317     -68.7760189
9.28                 0.897687222     -68.8883643
9.281                0.897359967     -69.0010288
9.282                0.897031402     -69.1140136
9.283                 0.89670152       -69.22732
9.284                0.896370315     -69.3409492
9.285                0.896037784     -69.4549025
9.286                0.895703919     -69.5691811
9.287                0.895368717     -69.6837862
9.288                0.895032171     -69.7987191
9.289                0.894694276      -69.913981
9.29                 0.894355028     -70.0295733
9.291                0.894014419     -70.1454971
9.292                0.893672446     -70.2617538
9.293                0.893329102     -70.3783446
9.294                0.892984383     -70.4952709
9.295                0.892638282     -70.6125339
9.296                0.892290795     -70.7301348
9.297                0.891941915     -70.8480751
9.298                0.891591637      -70.966356
9.299                0.891239957     -71.0849788
9.3                  0.890886867     -71.2039448
9.301                0.890532364     -71.3232554
9.302                0.890176441     -71.4429119
9.303                0.889819092     -71.5629156
9.304                0.889460313     -71.6832679
9.305                0.889100098       -71.80397
9.306                 0.88873844     -71.9250235
9.307                0.888375335     -72.0464295
9.308                0.888010778     -72.1681895
9.309                0.887644761     -72.2903049
9.31                 0.887277281      -72.412777
9.311                 0.88690833     -72.5356071
9.312                0.886537904     -72.6587968
9.313                0.886165997     -72.7823473
9.314                0.885792604     -72.9062601
9.315                0.885417718     -73.0305365
9.316                0.885041335      -73.155178
9.317                0.884663447      -73.280186
9.318                0.884284051     -73.4055618
9.319                 0.88390314      -73.531307
9.32                 0.883520708      -73.657423
9.321                 0.88313675     -73.7839111
9.322                 0.88275126     -73.9107729
9.323                0.882364233     -74.0380098
9.324                0.881975662     -74.1656231
9.325                0.881585543     -74.2936145
9.326                0.881193869     -74.4219853
9.327                0.880800635     -74.5507371
9.328                0.880405835     -74.6798713
9.329                0.880009463     -74.8093893
9.33                 0.879611514     -74.9392927
9.331                0.879211982      -75.069583
9.332                0.878810861     -75.2002617
9.333                0.878408145     -75.3313302
9.334                 0.87800383     -75.4627902
9.335                0.877597908      -75.594643
9.336                0.877190375     -75.7268903
9.337                0.876781225     -75.8595336
9.338                0.876370452     -75.9925743
9.339                 0.87595805     -76.1260141
9.34                 0.875544014     -76.2598545
9.341                0.875128337     -76.3940971
9.342                0.874711015     -76.5287434
9.343                0.874292041     -76.6637949
9.344                 0.87387141     -76.7992533
9.345                0.873449117     -76.9351202
9.346                0.873025154      -77.071397
9.347                0.872599518     -77.2080855
9.348                0.872172201     -77.3451872
9.349                0.871743199     -77.4827037
9.35                 0.871312506     -77.6206367
9.351                0.870880116     -77.7589877
9.352                0.870446023     -77.8977584
9.353                0.870010222     -78.0369504
9.354                0.869572707     -78.1765653
9.355                0.869133473     -78.3166048
9.356                0.868692514     -78.4570705
9.357                0.868249824     -78.5979641
9.358                0.867805397     -78.7392873
9.359                0.867359229     -78.8810417
9.36                 0.866911313      -79.023229
9.361                0.866461645     -79.1658508
9.362                0.866010217     -79.3089089
9.363                0.865557026      -79.452405
9.364                0.865102065     -79.5963407
9.365                0.864645328     -79.7407178
9.366                0.864186811     -79.8855379
9.367                0.863726508     -80.0308029
9.368                0.863264414     -80.1765143
9.369                0.862800522      -80.322674
9.37                 0.862334827     -80.4692837
9.371                0.861867325     -80.6163451
9.372                 0.86139801       -80.76386
9.373                0.860926875     -80.9118302
9.374                0.860453917     -81.0602573
9.375                0.859979129     -81.2091433
9.376                0.859502507     -81.3584898
9.377                0.859024044     -81.5082986
9.378                0.858543737     -81.6585715
9.379                0.858061579     -81.8093104
9.38                 0.857577565      -81.960517
9.381                 0.85709169     -82.1121931
9.382                0.856603949     -82.2643406
9.383                0.856114336     -82.4169612
9.384                0.855622848     -82.5700569
9.385                0.855129477     -82.7236294
9.386                0.854634221     -82.8776805
9.387                0.854137073     -83.0322122
9.388                0.853638028     -83.1872263
9.389                0.853137082     -83.3427246
9.39                 0.852634229      -83.498709
9.391                0.852129465     -83.6551815
9.392                0.851622784     -83.8121437
9.393                0.851114183     -83.9695978
9.394                0.850603656     -84.1275454
9.395                0.850091198     -84.2859887
9.396                0.849576805     -84.4449293
9.397                0.849060472     -84.6043694
9.398                0.848542194     -84.7643107
9.399                0.848021967     -84.9247552
9.4                  0.847499786     -85.0857049
9.401                0.846975647     -85.2471617
9.402                0.846449545     -85.4091274
9.403                0.845921476     -85.5716042
9.404                0.845391435     -85.7345939
9.405                0.844859418     -85.8980985
9.406                0.844325421     -86.0621199
9.407                 0.84378944     -86.2266602
9.408                 0.84325147     -86.3917213
9.409                0.842711507     -86.5573053
9.41                 0.842169547      -86.723414
9.411                0.841625587     -86.8900496
9.412                0.841079621     -87.0572139
9.413                0.840531647     -87.2249091
9.414                0.839981661     -87.3931372
9.415                0.839429657     -87.5619002
9.416                0.838875634        -87.7312
9.417                0.838319587     -87.9010388
9.418                0.837761512     -88.0714187
9.419                0.837201407     -88.2423415
9.42                 0.836639266     -88.4138095
9.421                0.836075088     -88.5858246
9.422                0.835508869      -88.758389
9.423                0.834940605     -88.9315047
9.424                0.834370293     -89.1051738
9.425                 0.83379793     -89.2793984
9.426                0.833223514     -89.4541805
9.427                 0.83264704     -89.6295224
9.428                0.832068506      -89.805426
9.429                 0.83148791     -89.9818935
9.43                 0.830905247      -90.158927
9.431                0.830320517     -90.3365286
9.432                0.829733716     -90.5147005
9.433                0.829144841     -90.6934448
9.434                0.828553891     -90.8727636
9.435                0.827960862     -91.0526591
9.436                0.827365753     -91.2331334
9.437                0.826768561     -91.4141887
9.438                0.826169284     -91.5958272
9.439                0.825567921      -91.778051
9.44                 0.824964469     -91.9608622
9.441                0.824358926     -92.1442631
9.442                0.823751291     -92.3282559
9.443                0.823141562     -92.5128426
9.444                0.822529738     -92.6980256
9.445                0.821915817     -92.8838071
9.446                0.821299798     -93.0701891
9.447                 0.82068168      -93.257174
9.448                0.820061461      -93.444764
9.449                0.819439141     -93.6329612
9.45                 0.818814718     -93.8217679
9.451                0.818188192     -94.0111863
9.452                0.817559563     -94.2012187
9.453                0.816928829     -94.3918673
9.454                 0.81629599     -94.5831343
9.455                0.815661046      -94.775022
9.456                0.815023997     -94.9675326
9.457                0.814384842     -95.1606684
9.458                0.813743583     -95.3544317
9.459                0.813100217     -95.5488246
9.46                 0.812454747     -95.7438496
9.461                0.811807173     -95.9395087
9.462                0.811157494     -96.1358045
9.463                0.810505712      -96.332739
9.464                0.809851828     -96.5303146
9.465                0.809195843     -96.7285336
9.466                0.808537757     -96.9273983
9.467                0.807877572     -97.1269109
9.468                0.807215289     -97.3270738
9.469                 0.80655091     -97.5278893
9.47                 0.805884436     -97.7293596
9.471                 0.80521587     -97.9314871
9.472                0.804545213     -98.1342741
9.473                0.803872467      -98.337723
9.474                0.803197635     -98.5418359
9.475                0.802520719     -98.7466153
9.476                0.801841722     -98.9520634
9.477                0.801160646     -99.1581827
9.478                0.800477494     -99.3649753
9.479                 0.79979227     -99.5724438
9.48                 0.799104977     -99.7805903
9.481                0.798415617     -99.9894172
9.482                0.797724196     -100.198927
9.483                0.797030716     -100.409122
9.484                0.796335181     -100.620004
9.485                0.795637596     -100.831576
9.486                0.794937964      -101.04384
9.487                0.794236291     -101.256798
9.488                0.793532581     -101.470454
9.489                0.792826839     -101.684808
9.49                 0.792119069     -101.899864
9.491                0.791409278     -102.115624
9.492                 0.79069747      -102.33209
9.493                0.789983652     -102.549265
9.494                0.789267828      -102.76715
9.495                0.788550005     -102.985749
9.496                 0.78783019     -103.205063
9.497                0.787108388     -103.425096
9.498                0.786384607     -103.645848
9.499                0.785658853     -103.867323
9.5                  0.784931133     -104.089523
9.501                0.784201454     -104.312451
9.502                0.783469825     -104.536108
9.503                0.782736252     -104.760497
9.504                0.782000744     -104.985621
9.505                0.781263309     -105.211481
9.506                0.780523955     -105.438081
9.507                 0.77978269     -105.665421
9.508                0.779039525     -105.893506
9.509                0.778294467     -106.122336
9.51                 0.777547526     -106.351915
9.511                0.776798712     -106.582245
9.512                0.776048034     -106.813327
9.513                0.775295503     -107.045165
9.514                0.774541129     -107.277761
9.515                0.773784921     -107.511116
9.516                0.773026892     -107.745234
9.517                0.772267052     -107.980116
9.518                0.771505412     -108.215766
9.519                0.770741984     -108.452184
9.52                  0.76997678     -108.689374
9.521                0.769209812     -108.927338
9.522                0.768441092     -109.166077
9.523                0.767670632     -109.405596
9.524                0.766898446     -109.645894
9.525                0.766124547     -109.886976
9.526                0.765348948     -110.128842
9.527                0.764571663     -110.371496
9.528                0.763792706     -110.614939
9.529                0.763012091     -110.859175
9.53                 0.762229832     -111.104204
9.531                0.761445945     -111.350029
9.532                0.760660445     -111.596653
9.533                0.759873346     -111.844078
9.534                0.759084665     -112.092305
9.535                0.758294417     -112.341338
9.536                 0.75750262     -112.591178
9.537                0.756709289     -112.841827
9.538                0.755914441     -113.093287
9.539                0.755118093     -113.345561
9.54                 0.754320264     -113.598651
9.541                0.753520971     -113.852559
9.542                0.752720231     -114.107287
9.543                0.751918064     -114.362837
9.544                0.751114487     -114.619211
9.545                0.750309521     -114.876411
9.546                0.749503185     -115.134439
9.547                0.748695497     -115.393298
9.548                0.747886479      -115.65299
9.549                 0.74707615     -115.913515
9.55                 0.746264531     -116.174877
9.551                0.745451644     -116.437077
9.552                0.744637508     -116.700118
9.553                0.743822147     -116.964001
9.554                0.743005582     -117.228728
9.555                0.742187835     -117.494301
9.556                0.741368929     -117.760722
9.557                0.740548888     -118.027993
9.558                0.739727733     -118.296116
9.559                 0.73890549     -118.565093
9.56                 0.738082181     -118.834924
9.561                0.737257832     -119.105614
9.562                0.736432467     -119.377162
9.563                 0.73560611      -119.64957
9.564                0.734778789     -119.922842
9.565                0.733950527     -120.196977
9.566                0.733121352     -120.471979
9.567                 0.73229129     -120.747848
9.568                0.731460367     -121.024586
9.569                 0.73062861     -121.302195
9.57                 0.729796048     -121.580677
9.571                0.728962708     -121.860033
9.572                0.728128618     -122.140264
9.573                0.727293807     -122.421373
9.574                0.726458304      -122.70336
9.575                0.725622138     -122.986227
9.576                0.724785339     -123.269976
9.577                0.723947936     -123.554608
9.578                 0.72310996     -123.840125
9.579                0.722271443     -124.126527
9.58                 0.721432414     -124.413816
9.581                0.720592906     -124.701993
9.582                 0.71975295      -124.99106
9.583                0.718912579     -125.281018
9.584                0.718071825     -125.571868
9.585                0.717230721     -125.863612
9.586                  0.7163893      -126.15625
9.587                0.715547595     -126.449783
9.588                0.714705642     -126.744213
9.589                0.713863475      -127.03954
9.59                 0.713021127     -127.335766
9.591                0.712178634     -127.632891
9.592                0.711336032     -127.930917
9.593                0.710493357     -128.229845
9.594                0.709650644     -128.529674
9.595                 0.70880793     -128.830407
9.596                0.707965253     -129.132043
9.597                0.707122649     -129.434584
9.598                0.706280156     -129.738029
9.599                0.705437812     -130.042381
9.6                  0.704595655     -130.347639
9.601                0.703753724     -130.653804