! TOUCHSTONE file generated by CST DESIGN STUDIO
! Date and time: Tue Feb  4 14:18:23 2025
! Project name: C:\Work\MatlabApps\UnitCellOptimizationMatlab\CST\unitcell.cst
! Tree item: Tasks\Sweep1\SPara1\S-Parameters
! Header version: 2024
! Port assignment regex: !\s*Touchstone port\s*([0-9]+)\s*=\s*(CST MWS port|CST DES external port|CST DES block port)\s*(.+)\s* \(\"(.*)\"\)(\s*mode\s*([0-9]+))?.*
! Touchstone port assignment:
! Touchstone port 1 = CST DES external port 1 ("")
# GHz S MA R 50
9                    0.889340643     -98.1753949
9.001                0.888930178      -98.387668
9.002                0.888517837     -98.6005885
9.003                0.888103624     -98.8141587
9.004                 0.88768754      -99.028381
9.005                0.887269588     -99.2432578
9.006                 0.88684977     -99.4587913
9.007                0.886428089     -99.6749838
9.008                0.886004549     -99.8918377
9.009                0.885579153     -100.109355
9.01                 0.885151903     -100.327539
9.011                0.884722804      -100.54639
9.012                 0.88429186     -100.765912
9.013                0.883859074     -100.986107
9.014                0.883424451     -101.206977
9.015                0.882987995     -101.428523
9.016                 0.88254971     -101.650749
9.017                0.882109601     -101.873657
9.018                0.881667673     -102.097248
9.019                0.881223931     -102.321525
9.02                 0.880778381      -102.54649
9.021                0.880331027     -102.772146
9.022                0.879881875     -102.998493
9.023                0.879430932     -103.225535
9.024                0.878978202     -103.453273
9.025                0.878523693      -103.68171
9.026                 0.87806741     -103.910848
9.027                0.877609359     -104.140689
9.028                0.877149549     -104.371234
9.029                0.876687985     -104.602486
9.03                 0.876224674     -104.834447
9.031                0.875759624     -105.067118
9.032                0.875292843     -105.300503
9.033                0.874824336     -105.534602
9.034                0.874354114     -105.769418
9.035                0.873882183     -106.004953
9.036                0.873408552     -106.241209
9.037                0.872933228     -106.478187
9.038                0.872456222      -106.71589
9.039                 0.87197754     -106.954319
9.04                 0.871497193     -107.193477
9.041                0.871015189     -107.433364
9.042                0.870531538     -107.673984
9.043                0.870046249     -107.915337
9.044                0.869559332     -108.157426
9.045                0.869070797     -108.400253
9.046                0.868580654     -108.643818
9.047                0.868088913     -108.888125
9.048                0.867595586     -109.133174
9.049                0.867100681     -109.378968
9.05                 0.866604212     -109.625508
9.051                0.866106188     -109.872795
9.052                0.865606621     -110.120832
9.053                0.865105522     -110.369621
9.054                0.864602904     -110.619162
9.055                0.864098779     -110.869457
9.056                0.863593158     -111.120509
9.057                0.863086054     -111.372318
9.058                 0.86257748     -111.624886
9.059                0.862067448     -111.878215
9.06                 0.861555972     -112.132306
9.061                0.861043065     -112.387161
9.062                 0.86052874     -112.642781
9.063                0.860013012     -112.899167
9.064                0.859495893     -113.156322
9.065                  0.8589774     -113.414246
9.066                0.858457545      -113.67294
9.067                0.857936343     -113.932407
9.068                 0.85741381     -114.192648
9.069                 0.85688996     -114.453663
9.07                  0.85636481     -114.715455
9.071                0.855838374     -114.978023
9.072                0.855310668     -115.241371
9.073                0.854781709     -115.505498
9.074                0.854251512     -115.770407
9.075                0.853720095     -116.036097
9.076                0.853187473     -116.302571
9.077                0.852653665     -116.569829
9.078                0.852118688     -116.837873
9.079                0.851582558     -117.106704
9.08                 0.851045294     -117.376322
9.081                0.850506914     -117.646729
9.082                0.849967435     -117.917926
9.083                0.849426878     -118.189913
9.084                0.848885259     -118.462692
9.085                0.848342599     -118.736263
9.086                0.847798917     -119.010627
9.087                0.847254232     -119.285786
9.088                0.846708563     -119.561739
9.089                0.846161932     -119.838488
9.09                 0.845614358     -120.116034
9.091                0.845065862     -120.394377
9.092                0.844516465     -120.673517
9.093                0.843966187     -120.953456
9.094                 0.84341505     -121.234194
9.095                0.842863076     -121.515732
9.096                0.842310287     -121.798069
9.097                0.841756704     -122.081208
9.098                 0.84120235     -122.365147
9.099                0.840647248     -122.649889
9.1                   0.84009142     -122.935432
9.101                 0.83953489     -123.221778
9.102                0.838977681     -123.508926
9.103                0.838419816     -123.796877
9.104                0.837861321     -124.085632
9.105                0.837302218      -124.37519
9.106                0.836742533     -124.665551
9.107                0.836182289     -124.956717
9.108                0.835621513     -125.248686
9.109                0.835060229     -125.541459
9.11                 0.834498464     -125.835037
9.111                0.833936241     -126.129418
9.112                0.833373589     -126.424603
9.113                0.832810532     -126.720592
9.114                0.832247098     -127.017384
9.115                0.831683313      -127.31498
9.116                0.831119205     -127.613379
9.117                0.830554801     -127.912582
9.118                0.829990128     -128.212586
9.119                0.829425214     -128.513394
9.12                 0.828860087     -128.815003
9.121                0.828294777     -129.117413
9.122                 0.82772931     -129.420624
9.123                0.827163717     -129.724636
9.124                0.826598026     -130.029448
9.125                0.826032267     -130.335058
9.126                0.825466469     -130.641467
9.127                0.824900662     -130.948674
9.128                0.824334877     -131.256678
9.129                0.823769143     -131.565478
9.13                 0.823203492     -131.875073
9.131                0.822637953     -132.185463
9.132                0.822072559     -132.496646
9.133                0.821507341     -132.808621
9.134                0.820942329     -133.121387
9.135                0.820377556     -133.434944
9.136                0.819813055     -133.749289
9.137                0.819248856     -134.064422
9.138                0.818684993     -134.380342
9.139                0.818121498     -134.697046
9.14                 0.817558405     -135.014534
9.141                0.816995745     -135.332804
9.142                0.816433554     -135.651855
9.143                0.815871864     -135.971685
9.144                0.815310709     -136.292292
9.145                0.814750123     -136.613675
9.146                 0.81419014     -136.935832
9.147                0.813630795     -137.258762
9.148                0.813072122     -137.582462
9.149                0.812514156      -137.90693
9.15                 0.811956932     -138.232165
9.151                0.811400485     -138.558164
9.152                 0.81084485     -138.884925
9.153                0.810290064     -139.212447
9.154                0.809736161     -139.540727
9.155                0.809183177     -139.869763
9.156                0.808631149     -140.199552
9.157                0.808080113     -140.530092
9.158                0.807530106     -140.861381
9.159                0.806981162     -141.193416
9.16                  0.80643332     -141.526195
9.161                0.805886616     -141.859714
9.162                0.805341088     -142.193972
9.163                0.804796771     -142.528965
9.164                0.804253704      -142.86469
9.165                0.803711923     -143.201145
9.166                0.803171467     -143.538327
9.167                0.802632372     -143.876233
9.168                0.802094677      -144.21486
9.169                0.801558419     -144.554203
9.17                 0.801023636     -144.894262
9.171                0.800490367     -145.235031
9.172                0.799958649     -145.576508
9.173                 0.79942852     -145.918689
9.174                0.798900019     -146.261571
9.175                0.798373184      -146.60515
9.176                0.797848053     -146.949422
9.177                0.797324666     -147.294385
9.178                 0.79680306     -147.640033
9.179                0.796283274     -147.986365
9.18                 0.795765346     -148.333374
9.181                0.795249316     -148.681058
9.182                0.794735222     -149.029413
9.183                0.794223102     -149.378434
9.184                0.793712996     -149.728117
9.185                0.793204942     -150.078459
9.186                0.792698979     -150.429454
9.187                0.792195146     -150.781098
9.188                 0.79169348     -151.133388
9.189                0.791194022     -151.486318
9.19                  0.79069681     -151.839884
9.191                0.790201882     -152.194081
9.192                0.789709277     -152.548905
9.193                0.789219034     -152.904351
9.194                0.788731191     -153.260413
9.195                0.788245787     -153.617088
9.196                 0.78776286      -153.97437
9.197                0.787282448     -154.332254
9.198                 0.78680459     -154.690735
9.199                0.786329323     -155.049808
9.2                  0.785856687     -155.409467
9.201                0.785386719     -155.769708
9.202                0.784919457     -156.130524
9.203                0.784454938     -156.491911
9.204                  0.7839932     -156.853863
9.205                0.783534282     -157.216374
9.206                0.783078219     -157.579439
9.207                 0.78262505     -157.943052
9.208                0.782174811     -158.307207
9.209                 0.78172754     -158.671898
9.21                 0.781283273      -159.03712
9.211                0.780842046     -159.402867
9.212                0.780403896     -159.769131
9.213                 0.77996886     -160.135908
9.214                0.779536973     -160.503192
9.215                0.779108271     -160.870975
9.216                 0.77868279     -161.239251
9.217                0.778260565     -161.608015
9.218                 0.77784163      -161.97726
9.219                0.777426022      -162.34698
9.22                 0.777013775     -162.717167
9.221                0.776604922     -163.087815
9.222                0.776199498     -163.458918
9.223                0.775797538     -163.830469
9.224                0.775399074      -164.20246
9.225                 0.77500414     -164.574886
9.226                0.774612769      -164.94774
9.227                0.774224993     -165.321013
9.228                0.773840845       -165.6947
9.229                0.773460358     -166.068794
9.23                 0.773083562     -166.443286
9.231                 0.77271049      -166.81817
9.232                0.772341172     -167.193439
9.233                0.771975639     -167.569086
9.234                0.771613922     -167.945102
9.235                0.771256051     -168.321482
9.236                0.770902055     -168.698216
9.237                0.770551963     -169.075298
9.238                0.770205806     -169.452721
9.239                0.769863611     -169.830476
9.24                 0.769525406     -170.208556
9.241                0.769191219     -170.586953
9.242                0.768861078      -170.96566
9.243                 0.76853501     -171.344668
9.244                0.768213041     -171.723971
9.245                0.767895197     -172.103559
9.246                0.767581505     -172.483426
9.247                0.767271988     -172.863563
9.248                0.766966673     -173.243962
9.249                0.766665584     -173.624615
9.25                 0.766368744     -174.005515
9.251                0.766076177     -174.386652
9.252                0.765787906      -174.76802
9.253                0.765503954     -175.149609
9.254                0.765224342     -175.531411
9.255                0.764949093     -175.913419
9.256                0.764678227     -176.295623
9.257                0.764411765     -176.678016
9.258                0.764149728      -177.06059
9.259                0.763892135     -177.443335
9.26                 0.763639004     -177.826244
9.261                0.763390356     -178.209308
9.262                0.763146207     -178.592519
9.263                0.762906575     -178.975867
9.264                0.762671479     -179.359346
9.265                0.762440933     -179.742946
9.266                0.762214955      179.873342
9.267                0.761993559      179.489526
9.268                0.761776762      179.105614
9.269                0.761564576      178.721615
9.27                 0.761357017      178.337538
9.271                0.761154097      177.953392
9.272                 0.76095583      177.569184
9.273                0.760762227      177.184924
9.274                0.760573301       176.80062
9.275                0.760389063      176.416281
9.276                0.760209523      176.031916
9.277                0.760034691      175.647533
9.278                0.759864577      175.263141
9.279                0.759699191      174.878749
9.28                 0.759538539      174.494365
9.281                0.759382631      174.109998
9.282                0.759231474      173.725657
9.283                0.759085073       173.34135
9.284                0.758943436      172.957087
9.285                0.758806569      172.572875
9.286                0.758674475      172.188724
9.287                 0.75854716      171.804642
9.288                0.758424628      171.420638
9.289                0.758306881      171.036721
9.29                 0.758193923      170.652899
9.291                0.758085756      170.269181
9.292                0.757982381      169.885575
9.293                0.757883801       169.50209
9.294                0.757790014      169.118735
9.295                0.757701022      168.735518
9.296                0.757616823      168.352449
9.297                0.757537417      167.969534
9.298                0.757462801      167.586784
9.299                0.757392975      167.204206
9.3                  0.757327934      166.821809
9.301                0.757267675      166.439601
9.302                0.757212195      166.057592
9.303                0.757161489      165.675788
9.304                0.757115552      165.294199
9.305                0.757074378      164.912834
9.306                0.757037963      164.531699
9.307                0.757006298      164.150804
9.308                0.756979376      163.770157
9.309                0.756957191      163.389767
9.31                 0.756939734       163.00964
9.311                0.756926996      162.629786
9.312                0.756918968      162.250213
9.313                0.756915641      161.870928
9.314                0.756917003       161.49194
9.315                0.756923044      161.113257
9.316                0.756933754      160.734887
9.317                0.756949119      160.356837
9.318                0.756969129      159.979116
9.319                 0.75699377      159.601732
9.32                 0.757023028      159.224691
9.321                0.757056891      158.848003
9.322                0.757095344      158.471674
9.323                0.757138372      158.095712
9.324                0.757185961      157.720125
9.325                0.757238094      157.344921
9.326                0.757294756      156.970107
9.327                 0.75735593       156.59569
9.328                0.757421599      156.221678
9.329                0.757491746      155.848079
9.33                 0.757566353      155.474898
9.331                0.757645402      155.102145
9.332                0.757728874      154.729825
9.333                 0.75781675      154.357947
9.334                 0.75790901      153.986517
9.335                0.758005635      153.615542
9.336                0.758106605      153.245029
9.337                0.758211898      152.874985
9.338                0.758321494      152.505416
9.339                0.758435371      152.136331
9.34                 0.758553507      151.767735
9.341                 0.75867588      151.399635
9.342                0.758802468      151.032037
9.343                0.758933248      150.664949
9.344                0.759068197      150.298376
9.345                 0.75920729      149.932325
9.346                0.759350504      149.566803
9.347                0.759497815      149.201815
9.348                0.759649198      148.837368
9.349                0.759804628      148.473469
9.35                 0.759964081      148.110122
9.351                 0.76012753      147.747334
9.352                 0.76029495      147.385111
9.353                0.760466315       147.02346
9.354                0.760641598      146.662385
9.355                0.760820773      146.301892
9.356                0.761003813      145.941988
9.357                0.761190691      145.582677
9.358                0.761381379      145.223965
9.359                 0.76157585      144.865859
9.36                 0.761774076      144.508362
9.361                0.761976029      144.151481
9.362                 0.76218168       143.79522
9.363                0.762391001      143.439586
9.364                0.762603964      143.084582
9.365                0.762820538      142.730214
9.366                0.763040696      142.376488
9.367                0.763264407      142.023407
9.368                0.763491643      141.670977
9.369                0.763722373      141.319203
9.37                 0.763956567      140.968088
9.371                0.764194196      140.617639
9.372                 0.76443523      140.267859
9.373                0.764679637      139.918753
9.374                0.764927389      139.570325
9.375                0.765178453      139.222579
9.376                0.765432799       138.87552
9.377                0.765690396      138.529153
9.378                0.765951214       138.18348
9.379                0.766215222      137.838506
9.38                 0.766482387      137.494236
9.381                0.766752679      137.150673
9.382                0.767026066       136.80782
9.383                0.767302518      136.465683
9.384                0.767582001      136.124263
9.385                0.767864486      135.783565
9.386                0.768149939      135.443593
9.387                 0.76843833       135.10435
9.388                0.768729626       134.76584
9.389                0.769023796      134.428064
9.39                 0.769320808      134.091028
9.391                 0.76962063      133.754735
9.392                0.769923229      133.419186
9.393                0.770228575      133.084386
9.394                0.770536634      132.750337
9.395                0.770847375      132.417043
9.396                0.771160767      132.084506
9.397                0.771476776      131.752728
9.398                0.771795371      131.421714
9.399                 0.77211652      131.091465
9.4                  0.772440191      130.761983
9.401                0.772766352      130.433272
9.402                 0.77309497      130.105335
9.403                0.773426015      129.778172
9.404                0.773759454      129.451787
9.405                0.774095256      129.126182
9.406                0.774433387       128.80136
9.407                0.774773818      128.477321
9.408                0.775116516      128.154069
9.409                0.775461449      127.831605
9.41                 0.775808586      127.509932
9.411                0.776157895       127.18905
9.412                0.776509345      126.868963
9.413                0.776862904      126.549671
9.414                0.777218542      126.231177
9.415                0.777576227      125.913483
9.416                0.777935927      125.596588
9.417                0.778297613      125.280497
9.418                0.778661252      124.965208
9.419                0.779026814      124.650725
9.42                 0.779394269      124.337049
9.421                0.779763585       124.02418
9.422                0.780134733       123.71212
9.423                0.780507681       123.40087
9.424                  0.7808824      123.090432
9.425                0.781258859      122.780806
9.426                0.781637028      122.471994
9.427                0.782016878      122.163995
9.428                0.782398378      121.856812
9.429                0.782781499      121.550445
9.43                 0.783166211      121.244895
9.431                0.783552486      120.940163
9.432                0.783940293      120.636249
9.433                0.784329603      120.333154
9.434                0.784720389      120.030878
9.435                 0.78511262      119.729423
9.436                0.785506269      119.428788
9.437                0.785901306      119.128975
9.438                0.786297703      118.829983
9.439                0.786695433      118.531812
9.44                 0.787094467      118.234464
9.441                0.787494777      117.937938
9.442                0.787896335      117.642235
9.443                0.788299115      117.347354
9.444                0.788703089      117.053296
9.445                0.789108228      116.760061
9.446                0.789514508      116.467649
9.447                  0.7899219       116.17606
9.448                0.790330378      115.885294
9.449                0.790739915      115.595351
9.45                 0.791150486       115.30623
9.451                0.791562063      115.017932
9.452                0.791974622      114.730456
9.453                0.792388136      114.443802
9.454                0.792802579      114.157969
9.455                0.793217927      113.872958
9.456                0.793634154      113.588768
9.457                0.794051235      113.305398
9.458                0.794469146      113.022848
9.459                0.794887861      112.741118
9.46                 0.795307356      112.460207
9.461                0.795727607      112.180114
9.462                0.796148589      111.900839
9.463                 0.79657028      111.622382
9.464                0.796992655      111.344741
9.465                 0.79741569      111.067915
9.466                0.797839363      110.791905
9.467                 0.79826365      110.516709
9.468                0.798688529      110.242326
9.469                0.799113977      109.968757
9.47                 0.799539971      109.695999
9.471                0.799966488      109.424051
9.472                0.800393508      109.152914
9.473                0.800821007      108.882586
9.474                0.801248965      108.613065
9.475                0.801677359      108.344352
9.476                0.802106168      108.076445
9.477                0.802535372      107.809342
9.478                0.802964949      107.543043
9.479                0.803394879      107.277547
9.48                 0.803825141      107.012852
9.481                0.804255714      106.748958
9.482                0.804686579      106.485862
9.483                0.805117716      106.223564
9.484                0.805549105      105.962063
9.485                0.805980726      105.701357
9.486                 0.80641256      105.441445
9.487                0.806844588      105.182326
9.488                0.807276791      104.923998
9.489                0.807709151      104.666459
9.49                 0.808141648       104.40971
9.491                0.808574264      104.153747
9.492                0.809006982       103.89857
9.493                0.809439783      103.644177
9.494                 0.80987265      103.390566
9.495                0.810305564      103.137737
9.496                0.810738509      102.885688
9.497                0.811171467      102.634416
9.498                0.811604422      102.383921
9.499                0.812037356      102.134201
9.5                  0.812470254      101.885255
9.501                0.812903098       101.63708
9.502                0.813335872      101.389675
9.503                 0.81376856      101.143038
9.504                0.814201147      100.897169
9.505                0.814633617      100.652064
9.506                0.815065954      100.407723
9.507                0.815498143      100.164143
9.508                0.815930168      99.9213235
9.509                0.816362016       99.679262
9.51                 0.816793671      99.4379569
9.511                0.817225119      99.1974064
9.512                0.817656345      98.9576088
9.513                0.818087335      98.7185623
9.514                0.818518076       98.480265
9.515                0.818948552      98.2427151
9.516                0.819378751      98.0059107
9.517                0.819808659      97.7698501
9.518                0.820238263      97.5345314
9.519                 0.82066755      97.2999526
9.52                 0.821096507      97.0661119
9.521                 0.82152512      96.8330073
9.522                0.821953378      96.6006371
9.523                0.822381267      96.3689993
9.524                0.822808776      96.1380918
9.525                0.823235893      95.9079129
9.526                0.823662605      95.6784606
9.527                0.824088901      95.4497328
9.528                0.824514769      95.2217277
9.529                0.824940198      94.9944432
9.53                 0.825365177      94.7678774
9.531                0.825789693      94.5420283
9.532                0.826213737       94.316894
9.533                0.826637298      94.0924722
9.534                0.827060364      93.8687612
9.535                0.827482926      93.6457589
9.536                0.827904973      93.4234631
9.537                0.828326495       93.201872
9.538                0.828747482      92.9809835
9.539                0.829167923      92.7607955
9.54                 0.829587811      92.5413059
9.541                0.830007133      92.3225128
9.542                0.830425883       92.104414
9.543                0.830844049      91.8870076
9.544                0.831261623      91.6702913
9.545                0.831678596      91.4542633
9.546                0.832094959      91.2389213
9.547                0.832510703      91.0242633
9.548                0.832925821      90.8102872
9.549                0.833340302      90.5969909
9.55                  0.83375414      90.3843724
9.551                0.834167326      90.1724294
9.552                0.834579852      89.9611601
9.553                 0.83499171      89.7505621
9.554                0.835402893      89.5406335
9.555                0.835813392      89.3313721
9.556                  0.8362232      89.1227758
9.557                0.836632311      88.9148425
9.558                0.837040717      88.7075701
9.559                 0.83744841      88.5009564
9.56                 0.837855384      88.2949994
9.561                0.838261631       88.089697
9.562                0.838667147      87.8850469
9.563                0.839071922      87.6810472
9.564                0.839475952      87.4776956
9.565                 0.83987923        87.27499
9.566                 0.84028175      87.0729284
9.567                0.840683505      86.8715086
9.568                 0.84108449      86.6707285
9.569                0.841484698      86.4705859
9.57                 0.841884125      86.2710787
9.571                0.842282763      86.0722049
9.572                0.842680609      85.8739622
9.573                0.843077656      85.6763486
9.574                0.843473899       85.479362
9.575                0.843869334      85.2830001
9.576                0.844263954       85.087261
9.577                0.844657754      84.8921424
9.578                0.845050731      84.6976423
9.579                 0.84544288      84.5037585
9.58                 0.845834194       84.310489
9.581                0.846224671      84.1178315
9.582                0.846614306      83.9257841
9.583                0.847003094      83.7343445
9.584                 0.84739103      83.5435107
9.585                0.847778112      83.3532806
9.586                0.848164334      83.1636521
9.587                0.848549694       82.974623
9.588                0.848934186      82.7861913
9.589                0.849317807      82.5983548
9.59                 0.849700554      82.4111115
9.591                0.850082423      82.2244593
9.592                 0.85046341       82.038396
9.593                0.850843512      81.8529197
9.594                0.851222726      81.6680281
9.595                0.851601049      81.4837193
9.596                0.851978477      81.2999911
9.597                0.852355007      81.1168415
9.598                0.852730636      80.9342683
9.599                0.853105362      80.7522696
9.6                  0.853479181      80.5708433
9.601                0.853852091      80.3899872