! TOUCHSTONE file generated by CST DESIGN STUDIO
! Date and time: Tue Jan 28 13:35:14 2025
! Project name: C:\Work\MatlabApps\UnitCellOptimizationMatlabNew\CST\unitcell.cst
! Tree item: Tasks\Sweep1\SPara1\S-Parameters
! Header version: 2024
! Port assignment regex: !\s*Touchstone port\s*([0-9]+)\s*=\s*(CST MWS port|CST DES external port|CST DES block port)\s*(.+)\s* \(\"(.*)\"\)(\s*mode\s*([0-9]+))?.*
! Touchstone port assignment:
! Touchstone port 1 = CST DES external port 1 ("")
# GHz S MA R 50
9                    0.947159038     -53.7224671
9.001                0.947050577     -53.7947435
9.002                0.946941808      -53.867197
9.003                0.946832728     -53.9398282
9.004                0.946723335     -54.0126376
9.005                0.946613629      -54.085626
9.006                0.946503606      -54.158794
9.007                0.946393266     -54.2321422
9.008                0.946282607     -54.3056712
9.009                0.946171627     -54.3793817
9.01                 0.946060325     -54.4532743
9.011                0.945948698     -54.5273497
9.012                0.945836745     -54.6016084
9.013                0.945724464     -54.6760512
9.014                0.945611853     -54.7506787
9.015                0.945498912     -54.8254916
9.016                0.945385637     -54.9004904
9.017                0.945272027      -54.975676
9.018                0.945158081     -55.0510488
9.019                0.945043796     -55.1266096
9.02                 0.944929171     -55.2023591
9.021                0.944814205      -55.278298
9.022                0.944698894     -55.3544268
9.023                0.944583238     -55.4307463
9.024                0.944467234     -55.5072571
9.025                0.944350881     -55.5839599
9.026                0.944234176     -55.6608555
9.027                0.944117119     -55.7379445
9.028                0.943999707     -55.8152275
9.029                0.943881938     -55.8927054
9.03                 0.943763811     -55.9703787
9.031                0.943645323     -56.0482481
9.032                0.943526473     -56.1263145
9.033                0.943407258     -56.2045784
9.034                0.943287678     -56.2830405
9.035                0.943167729     -56.3617017
9.036                 0.94304741     -56.4405625
9.037                0.942926719     -56.5196238
9.038                0.942805655     -56.5988862
9.039                0.942684214     -56.6783504
9.04                 0.942562396     -56.7580172
9.041                0.942440197     -56.8378873
9.042                0.942317618     -56.9179614
9.043                0.942194654     -56.9982403
9.044                0.942071304     -57.0787246
9.045                0.941947567     -57.1594152
9.046                 0.94182344     -57.2403127
9.047                0.941698922      -57.321418
9.048                0.941574009     -57.4027317
9.049                0.941448701     -57.4842546
9.05                 0.941322994     -57.5659874
9.051                0.941196888      -57.647931
9.052                 0.94107038     -57.7300861
9.053                0.940943468     -57.8124534
9.054                0.940816149     -57.8950337
9.055                0.940688422     -57.9778277
9.056                0.940560285     -58.0608363
9.057                0.940431736     -58.1440603
9.058                0.940302772     -58.2275003
9.059                0.940173391     -58.3111572
9.06                 0.940043591     -58.3950317
9.061                 0.93991337     -58.4791247
9.062                0.939782727     -58.5634369
9.063                0.939651658     -58.6479692
9.064                0.939520161     -58.7327223
9.065                0.939388235      -58.817697
9.066                0.939255877     -58.9028941
9.067                0.939123085     -58.9883145
9.068                0.938989857      -59.073959
9.069                 0.93885619     -59.1598283
9.07                 0.938722083     -59.2459232
9.071                0.938587532     -59.3322447
9.072                0.938452537     -59.4187935
9.073                0.938317094     -59.5055705
9.074                0.938181202     -59.5925764
9.075                0.938044858     -59.6798121
9.076                0.937908059     -59.7672785
9.077                0.937770804     -59.8549764
9.078                 0.93763309     -59.9429066
9.079                0.937494916     -60.0310701
9.08                 0.937356277     -60.1194675
9.081                0.937217173     -60.2080998
9.082                0.937077601     -60.2969679
9.083                0.936937559     -60.3860726
9.084                0.936797044     -60.4754148
9.085                0.936656054     -60.5649953
9.086                0.936514586      -60.654815
9.087                0.936372639     -60.7448748
9.088                0.936230209     -60.8351756
9.089                0.936087294     -60.9257182
9.09                 0.935943893     -61.0165035
9.091                0.935800002     -61.1075325
9.092                0.935655619     -61.1988061
9.093                0.935510742      -61.290325
9.094                0.935365369     -61.3820902
9.095                0.935219496     -61.4741027
9.096                0.935073121     -61.5663633
9.097                0.934926242      -61.658873
9.098                0.934778857     -61.7516326
9.099                0.934630962     -61.8446431
9.1                  0.934482556     -61.9379054
9.101                0.934333636     -62.0314205
9.102                0.934184199     -62.1251892
9.103                0.934034244     -62.2192125
9.104                0.933883766     -62.3134913
9.105                0.933732764     -62.4080266
9.106                0.933581236     -62.5028193
9.107                0.933429178     -62.5978704
9.108                0.933276588     -62.6931809
9.109                0.933123464     -62.7887516
9.11                 0.932969802     -62.8845836
9.111                0.932815601     -62.9806777
9.112                0.932660858     -63.0770351
9.113                 0.93250557     -63.1736566
9.114                0.932349734     -63.2705433
9.115                0.932193349      -63.367696
9.116                 0.93203641     -63.4651159
9.117                0.931878916     -63.5628038
9.118                0.931720864     -63.6607609
9.119                0.931562251      -63.758988
9.12                 0.931403074     -63.8574862
9.121                0.931243332     -63.9562564
9.122                 0.93108302     -64.0552998
9.123                0.930922137     -64.1546173
9.124                 0.93076068     -64.2542099
9.125                0.930598646     -64.3540786
9.126                0.930436032     -64.4542246
9.127                0.930272835     -64.5546487
9.128                0.930109054     -64.6553521
9.129                0.929944684     -64.7563357
9.13                 0.929779724     -64.8576007
9.131                 0.92961417      -64.959148
9.132                 0.92944802     -65.0609788
9.133                 0.92928127      -65.163094
9.134                0.929113919     -65.2654947
9.135                0.928945963     -65.3681821
9.136                0.928777399     -65.4711571
9.137                0.928608225     -65.5744208
9.138                0.928438438     -65.6779744
9.139                0.928268035     -65.7818188
9.14                 0.928097013     -65.8859552
9.141                0.927925369     -65.9903847
9.142                  0.9277531     -66.0951084
9.143                0.927580204     -66.2001273
9.144                0.927406678     -66.3054426
9.145                0.927232518     -66.4110553
9.146                0.927057722     -66.5169666
9.147                0.926882286     -66.6231777
9.148                0.926706209     -66.7296895
9.149                0.926529487     -66.8365033
9.15                 0.926352117     -66.9436201
9.151                0.926174095     -67.0510411
9.152                 0.92599542     -67.1587675
9.153                0.925816089     -67.2668004
9.154                0.925636097     -67.3751409
9.155                0.925455443     -67.4837902
9.156                0.925274123     -67.5927494
9.157                0.925092134     -67.7020197
9.158                0.924909474     -67.8116023
9.159                0.924726138     -67.9214983
9.16                 0.924542125     -68.0317089
9.161                0.924357432     -68.1422353
9.162                0.924172054     -68.2530787
9.163                 0.92398599     -68.3642402
9.164                0.923799236     -68.4757211
9.165                0.923611789     -68.5875226
9.166                0.923423645     -68.6996458
9.167                0.923234803     -68.8120919
9.168                0.923045259     -68.9248622
9.169                0.922855009     -69.0379579
9.17                 0.922664052     -69.1513802
9.171                0.922472382     -69.2651304
9.172                0.922279999     -69.3792096
9.173                0.922086897     -69.4936191
9.174                0.921893075     -69.6083601
9.175                 0.92169853      -69.723434
9.176                0.921503257     -69.8388418
9.177                0.921307254      -69.954585
9.178                0.921110518     -70.0706647
9.179                0.920913046     -70.1870821
9.18                 0.920714834     -70.3038387
9.181                0.920515879     -70.4209356
9.182                0.920316179     -70.5383742
9.183                 0.92011573     -70.6561557
9.184                0.919914528     -70.7742813
9.185                0.919712572     -70.8927525
9.186                0.919509856     -71.0115704
9.187                0.919306379     -71.1307365
9.188                0.919102138     -71.2502519
9.189                0.918897128     -71.3701181
9.19                 0.918691347     -71.4903363
9.191                0.918484791     -71.6109078
9.192                0.918277458      -71.731834
9.193                0.918069344     -71.8531163
9.194                0.917860446     -71.9747559
9.195                0.917650761     -72.0967541
9.196                0.917440285     -72.2191125
9.197                0.917229015     -72.3418322
9.198                0.917016948     -72.4649146
9.199                0.916804082     -72.5883612
9.2                  0.916590411     -72.7121732
9.201                0.916375934     -72.8363521
9.202                0.916160647     -72.9608992
9.203                0.915944547     -73.0858159
9.204                0.915727631     -73.2111037
9.205                0.915509895     -73.3367638
9.206                0.915291336     -73.4627976
9.207                0.915071951     -73.5892067
9.208                0.914851736     -73.7159924
9.209                0.914630689      -73.843156
9.21                 0.914408806     -73.9706991
9.211                0.914186084     -74.0986231
9.212                0.913962519     -74.2269293
9.213                0.913738109     -74.3556192
9.214                0.913512849     -74.4846942
9.215                0.913286738     -74.6141559
9.216                0.913059771     -74.7440055
9.217                0.912831945     -74.8742447
9.218                0.912603258     -75.0048748
9.219                0.912373705     -75.1358973
9.22                 0.912143284     -75.2673136
9.221                0.911911991     -75.3991253
9.222                0.911679822     -75.5313339
9.223                0.911446776     -75.6639407
9.224                0.911212848     -75.7969473
9.225                0.910978036     -75.9303553
9.226                0.910742336      -76.064166
9.227                0.910505744      -76.198381
9.228                0.910268258     -76.3330018
9.229                0.910029874     -76.4680299
9.23                 0.909790589     -76.6034668
9.231                  0.9095504     -76.7393141
9.232                0.909309304     -76.8755732
9.233                0.909067297     -77.0122458
9.234                0.908824376     -77.1493334
9.235                0.908580539     -77.2868374
9.236                0.908335781     -77.4247595
9.237                0.908090099     -77.5631012
9.238                0.907843491      -77.701864
9.239                0.907595953     -77.8410496
9.24                 0.907347483     -77.9806594
9.241                0.907098076     -78.1206952
9.242                0.906847729     -78.2611583
9.243                 0.90659644     -78.4020505
9.244                0.906344206     -78.5433734
9.245                0.906091022     -78.6851284
9.246                0.905836887     -78.8273172
9.247                0.905581797     -78.9699415
9.248                0.905325748     -79.1130028
9.249                0.905068738     -79.2565027
9.25                 0.904810764     -79.4004429
9.251                0.904551822     -79.5448249
9.252                 0.90429191     -79.6896505
9.253                0.904031024     -79.8349212
9.254                0.903769161     -79.9806387
9.255                0.903506319     -80.1268046
9.256                0.903242494     -80.2734206
9.257                0.902977683     -80.4204884
9.258                0.902711883     -80.5680095
9.259                0.902445091     -80.7159856
9.26                 0.902177305     -80.8644185
9.261                0.901908521     -81.0133097
9.262                0.901638736      -81.162661
9.263                0.901367948      -81.312474
9.264                0.901096153     -81.4627505
9.265                0.900823348     -81.6134921
9.266                0.900549531     -81.7647005
9.267                0.900274699     -81.9163774
9.268                0.899998849     -82.0685246
9.269                0.899721978     -82.2211437
9.27                 0.899444084     -82.3742364
9.271                0.899165163     -82.5278045
9.272                0.898885212     -82.6818496
9.273                 0.89860423     -82.8363736
9.274                0.898322212     -82.9913781
9.275                0.898039157     -83.1468649
9.276                0.897755062     -83.3028357
9.277                0.897469924     -83.4592923
9.278                0.897183741     -83.6162364
9.279                0.896896509     -83.7736697
9.28                 0.896608227     -83.9315941
9.281                0.896318891     -84.0900113
9.282                  0.8960285      -84.248923
9.283                0.895737049     -84.4083311
9.284                0.895444538     -84.5682372
9.285                0.895150964     -84.7286433
9.286                0.894856324      -84.889551
9.287                0.894560615     -85.0509621
9.288                0.894263836     -85.2128785
9.289                0.893965984     -85.3753019
9.29                 0.893667056     -85.5382341
9.291                0.893367051      -85.701677
9.292                0.893065966     -85.8656323
9.293                0.892763798     -86.0301018
9.294                0.892460546     -86.1950875
9.295                0.892156208      -86.360591
9.296                0.891850781     -86.5266142
9.297                0.891544262     -86.6931589
9.298                0.891236652      -86.860227
9.299                0.890927946     -87.0278202
9.3                  0.890618143     -87.1959405
9.301                0.890307241     -87.3645896
9.302                0.889995238     -87.5337695
9.303                0.889682133     -87.7034818
9.304                0.889367923     -87.8737286
9.305                0.889052607     -88.0445116
9.306                0.888736182     -88.2158327
9.307                0.888418648     -88.3876938
9.308                0.888100002     -88.5600966
9.309                0.887780242     -88.7330432
9.31                 0.887459368     -88.9065352
9.311                0.887137378     -89.0805747
9.312                 0.88681427     -89.2551635
9.313                0.886490042     -89.4303034
9.314                0.886164694     -89.6059963
9.315                0.885838223     -89.7822442
9.316                0.885510629     -89.9590488
9.317                 0.88518191     -90.1364121
9.318                0.884852066     -90.3143359
9.319                0.884521094     -90.4928222
9.32                 0.884188994     -90.6718728
9.321                0.883855765     -90.8514897
9.322                0.883521406     -91.0316746
9.323                0.883185915     -91.2124296
9.324                0.882849292     -91.3937565
9.325                0.882511537     -91.5756571
9.326                0.882172647     -91.7581335
9.327                0.881832623     -91.9411875
9.328                0.881491464      -92.124821
9.329                0.881149169     -92.3090359
9.33                 0.880805738     -92.4938341
9.331                 0.88046117     -92.6792176
9.332                0.880115465     -92.8651882
9.333                0.879768623     -93.0517478
9.334                0.879420643     -93.2388983
9.335                0.879071524     -93.4266418
9.336                0.878721268     -93.6149799
9.337                0.878369873     -93.8039148
9.338                 0.87801734     -93.9934482
9.339                0.877663669     -94.1835822
9.34                  0.87730886     -94.3743185
9.341                0.876952912     -94.5656592
9.342                0.876595828     -94.7576061
9.343                0.876237606     -94.9501612
9.344                0.875878247     -95.1433262
9.345                0.875517752     -95.3371033
9.346                0.875156121     -95.5314942
9.347                0.874793355     -95.7265009
9.348                0.874429455     -95.9221253
9.349                0.874064421     -96.1183693
9.35                 0.873698254     -96.3152348
9.351                0.873330956     -96.5127236
9.352                0.872962527     -96.7108378
9.353                0.872592969     -96.9095792
9.354                0.872222283     -97.1089497
9.355                 0.87185047     -97.3089512
9.356                0.871477532     -97.5095856
9.357                 0.87110347     -97.7108547
9.358                0.870728285     -97.9127606
9.359                 0.87035198      -98.115305
9.36                 0.869974556     -98.3184899
9.361                0.869596015     -98.5223171
9.362                0.869216359     -98.7267885
9.363                0.868835591      -98.931906
9.364                0.868453712     -99.1376715
9.365                0.868070724     -99.3440869
9.366                0.867686631     -99.5511539
9.367                0.867301434     -99.7588745
9.368                0.866915136     -99.9672505
9.369                 0.86652774     -100.176284
9.37                 0.866139248     -100.385976
9.371                0.865749664      -100.59633
9.372                0.865358991     -100.807346
9.373                0.864967231     -101.019027
9.374                0.864574389     -101.231374
9.375                0.864180466      -101.44439
9.376                0.863785467     -101.658076
9.377                0.863389396     -101.872434
9.378                0.862992255     -102.087465
9.379                 0.86259405     -102.303172
9.38                 0.862194783     -102.519557
9.381                0.861794459      -102.73662
9.382                0.861393082     -102.954365
9.383                0.860990656     -103.172792
9.384                0.860587186     -103.391904
9.385                0.860182677     -103.611702
9.386                0.859777132     -103.832188
9.387                0.859370558     -104.053364
9.388                0.858962958     -104.275231
9.389                0.858554338     -104.497791
9.39                 0.858144702     -104.721047
9.391                0.857734058     -104.944999
9.392                0.857322409     -105.169649
9.393                0.856909762        -105.395
9.394                0.856496122     -105.621052
9.395                0.856081495     -105.847808
9.396                0.855665887     -106.075268
9.397                0.855249305     -106.303436
9.398                0.854831754     -106.532312
9.399                0.854413242     -106.761897
9.4                  0.853993774     -106.992195
9.401                0.853573357     -107.223206
9.402                0.853151999     -107.454931
9.403                0.852729707     -107.687373
9.404                0.852306487     -107.920534
9.405                0.851882347     -108.154413
9.406                0.851457295     -108.389014
9.407                0.851031338     -108.624338
9.408                0.850604484     -108.860386
9.409                0.850176741     -109.097159
9.41                 0.849748117      -109.33466
9.411                0.849318621     -109.572889
9.412                 0.84888826     -109.811849
9.413                0.848457044      -110.05154
9.414                0.848024982     -110.291965
9.415                0.847592082     -110.533124
9.416                0.847158353     -110.775019
9.417                0.846723805     -111.017651
9.418                0.846288447     -111.261022
9.419                0.845852289     -111.505133
9.42                  0.84541534     -111.749985
9.421                0.844977612      -111.99558
9.422                0.844539112      -112.24192
9.423                0.844099853     -112.489004
9.424                0.843659845     -112.736835
9.425                0.843219098     -112.985414
9.426                0.842777623     -113.234742
9.427                0.842335431     -113.484821
9.428                0.841892533     -113.735651
9.429                0.841448941     -113.987234
9.43                 0.841004666      -114.23957
9.431                0.840559721     -114.492662
9.432                0.840114117      -114.74651
9.433                0.839667865     -115.001115
9.434                 0.83922098     -115.256478
9.435                0.838773472     -115.512601
9.436                0.838325355     -115.769484
9.437                0.837876641     -116.027128
9.438                0.837427345     -116.285535
9.439                0.836977478     -116.544705
9.44                 0.836527054      -116.80464
9.441                0.836076088      -117.06534
9.442                0.835624592     -117.326805
9.443                0.835172582     -117.589038
9.444                 0.83472007     -117.852039
9.445                0.834267073     -118.115808
9.446                0.833813603     -118.380346
9.447                0.833359676     -118.645655
9.448                0.832905308     -118.911734
9.449                0.832450513     -119.178585
9.45                 0.831995306     -119.446209
9.451                0.831539704     -119.714605
9.452                0.831083722     -119.983774
9.453                0.830627376     -120.253718
9.454                0.830170682     -120.524437
9.455                0.829713657     -120.795931
9.456                0.829256318       -121.0682
9.457                0.828798681     -121.341246
9.458                0.828340763     -121.615068
9.459                0.827882581     -121.889667
9.46                 0.827424154     -122.165044
9.461                0.826965497     -122.441198
9.462                0.826506631     -122.718131
9.463                0.826047571     -122.995842
9.464                0.825588338     -123.274331
9.465                0.825128948     -123.553599
9.466                0.824669421     -123.833647
9.467                0.824209776     -124.114473
9.468                0.823750031     -124.396078
9.469                0.823290207     -124.678463
9.47                 0.822830321     -124.961627
9.471                0.822370395     -125.245571
9.472                0.821910447     -125.530293
9.473                0.821450498     -125.815795
9.474                0.820990569     -126.102076
9.475                0.820530679     -126.389136
9.476                0.820070849     -126.676975
9.477                  0.8196111     -126.965592
9.478                0.819151454     -127.254987
9.479                0.818691931     -127.545161
9.48                 0.818232553     -127.836111
9.481                0.817773341     -128.127839
9.482                0.817314318     -128.420344
9.483                0.816855506     -128.713625
9.484                0.816396925     -129.007682
9.485                  0.8159386     -129.302513
9.486                0.815480553      -129.59812
9.487                0.815022806       -129.8945
9.488                0.814565383     -130.191654
9.489                0.814108306     -130.489579
9.49                   0.8136516     -130.788277
9.491                0.813195287     -131.087746
9.492                0.812739391     -131.387984
9.493                0.812283937     -131.688992
9.494                0.811828948     -131.990767
9.495                0.811374448      -132.29331
9.496                0.810920463     -132.596618
9.497                0.810467016     -132.900692
9.498                0.810014133     -133.205529
9.499                0.809561839     -133.511129
9.5                  0.809110158      -133.81749
9.501                0.808659116     -134.124611
9.502                0.808208738     -134.432491
9.503                0.807759051     -134.741127
9.504                0.807310079      -135.05052
9.505                 0.80686185     -135.360667
9.506                0.806414388     -135.671566
9.507                0.805967721     -135.983216
9.508                0.805521875     -136.295616
9.509                0.805076875     -136.608764
9.51                  0.80463275     -136.922657
9.511                0.804189526     -137.237294
9.512                0.803747229     -137.552674
9.513                0.803305888     -137.868794
9.514                0.802865529     -138.185652
9.515                 0.80242618     -138.503246
9.516                0.801987868     -138.821574
9.517                0.801550621     -139.140635
9.518                0.801114467     -139.460425
9.519                0.800679433     -139.780942
9.52                 0.800245548     -140.102185
9.521                0.799812841      -140.42415
9.522                0.799381338     -140.746836
9.523                0.798951069     -141.070239
9.524                0.798522061     -141.394358
9.525                0.798094345      -141.71919
9.526                0.797667947     -142.044731
9.527                0.797242898      -142.37098
9.528                0.796819225     -142.697933
9.529                0.796396958     -143.025588
9.53                 0.795976126     -143.353942
9.531                0.795556757     -143.682991
9.532                0.795138881     -144.012733
9.533                0.794722528     -144.343165
9.534                0.794307726     -144.674283
9.535                0.793894505     -145.006085
9.536                0.793482894     -145.338566
9.537                0.793072923     -145.671724
9.538                 0.79266462     -146.005556
9.539                0.792258017     -146.340057
9.54                 0.791853141     -146.675225
9.541                0.791450023     -147.011056
9.542                0.791048693     -147.347545
9.543                 0.79064918     -147.684691
9.544                0.790251513     -148.022487
9.545                0.789855723     -148.360932
9.546                0.789461839     -148.700021
9.547                0.789069891      -149.03975
9.548                0.788679908     -149.380114
9.549                 0.78829192     -149.721111
9.55                 0.787905957     -150.062736
9.551                0.787522049     -150.404984
9.552                0.787140224     -150.747852
9.553                0.786760513     -151.091334
9.554                0.786382945     -151.435428
9.555                 0.78600755     -151.780127
9.556                0.785634357     -152.125429
9.557                0.785263395     -152.471327
9.558                0.784894694     -152.817819
9.559                0.784528284     -153.164898
9.56                 0.784164192      -153.51256
9.561                 0.78380245       -153.8608
9.562                0.783443085     -154.209614
9.563                0.783086126     -154.558997
9.564                0.782731603     -154.908943
9.565                0.782379544     -155.259447
9.566                0.782029979     -155.610505
9.567                0.781682934     -155.962111
9.568                 0.78133844      -156.31426
9.569                0.780996525     -156.666946
9.57                 0.780657215     -157.020165
9.571                0.780320541     -157.373911
9.572                0.779986529     -157.728178
9.573                0.779655208     -158.082961
9.574                0.779326605     -158.438254
9.575                0.779000748     -158.794051
9.576                0.778677664     -159.150348
9.577                 0.77835738     -159.507137
9.578                0.778039923     -159.864414
9.579                 0.77772532     -160.222172
9.58                 0.777413598     -160.580406
9.581                0.777104784     -160.939109
9.582                0.776798903     -161.298276
9.583                0.776495981     -161.657899
9.584                0.776196045     -162.017974
9.585                0.775899119     -162.378494
9.586                0.775605231     -162.739453
9.587                0.775314403     -163.100843
9.588                0.775026663      -163.46266
9.589                0.774742034     -163.824896
9.59                  0.77446054     -164.187545
9.591                0.774182207     -164.550601
9.592                0.773907058     -164.914057
9.593                0.773635117     -165.277906
9.594                0.773366407     -165.642141
9.595                0.773100951     -166.006756
9.596                0.772838773     -166.371745
9.597                0.772579894     -166.737099
9.598                0.772324338     -167.102813
9.599                0.772072127      -167.46888
9.6                  0.771823282     -167.835292