! TOUCHSTONE file generated by CST DESIGN STUDIO
! Date and time: Tue Feb  4 18:26:25 2025
! Project name: C:\Work\MatlabApps\UnitCellOptimizationMatlab\CST\unitcell.cst
! Tree item: Tasks\Sweep1\SPara1\S-Parameters
! Header version: 2024
! Port assignment regex: !\s*Touchstone port\s*([0-9]+)\s*=\s*(CST MWS port|CST DES external port|CST DES block port)\s*(.+)\s* \(\"(.*)\"\)(\s*mode\s*([0-9]+))?.*
! Touchstone port assignment:
! Touchstone port 1 = CST DES external port 1 ("")
# GHz S MA R 50
9                    0.982567456     -73.8070586
9.001                0.982526591     -73.9168298
9.002                0.982485598     -74.0268683
9.003                0.982444477      -74.137175
9.004                0.982403226     -74.2477506
9.005                0.982361847     -74.3585959
9.006                0.982320338     -74.4697119
9.007                  0.9822787     -74.5810992
9.008                0.982236932     -74.6927587
9.009                0.982195033     -74.8046911
9.01                 0.982153004     -74.9168974
9.011                0.982110844     -75.0293783
9.012                0.982068553     -75.1421347
9.013                0.982026131     -75.2551673
9.014                0.981983577      -75.368477
9.015                0.981940891     -75.4820646
9.016                0.981898073     -75.5959309
9.017                0.981855122     -75.7100768
9.018                0.981812039     -75.8245032
9.019                0.981768823     -75.9392107
9.02                 0.981725473     -76.0542003
9.021                 0.98168199     -76.1694729
9.022                0.981638373     -76.2850291
9.023                0.981594622       -76.40087
9.024                0.981550737     -76.5169963
9.025                0.981506717     -76.6334088
9.026                0.981462563     -76.7501085
9.027                0.981418273     -76.8670962
9.028                0.981373848     -76.9843727
9.029                0.981329287     -77.1019388
9.03                  0.98128459     -77.2197955
9.031                0.981239757     -77.3379436
9.032                0.981194788     -77.4563839
9.033                0.981149682     -77.5751173
9.034                0.981104439     -77.6941447
9.035                0.981059059     -77.8134669
9.036                0.981013541     -77.9330848
9.037                0.980967886     -78.0529993
9.038                0.980922093     -78.1732113
9.039                0.980876162     -78.2937215
9.04                 0.980830092     -78.4145309
9.041                0.980783884     -78.5356404
9.042                0.980737536     -78.6570508
9.043                 0.98069105     -78.7787631
9.044                0.980644424      -78.900778
9.045                0.980597659     -79.0230965
9.046                0.980550754     -79.1457195
9.047                0.980503708     -79.2686478
9.048                0.980456523     -79.3918824
9.049                0.980409196     -79.5154241
9.05                 0.980361729     -79.6392738
9.051                0.980314122     -79.7634325
9.052                0.980266372     -79.8879009
9.053                0.980218482     -80.0126801
9.054                 0.98017045     -80.1377709
9.055                0.980122276     -80.2631742
9.056                0.980073959     -80.3888909
9.057                0.980025501     -80.5149219
9.058                  0.9799769     -80.6412681
9.059                0.979928156     -80.7679305
9.06                  0.97987927     -80.8949099
9.061                 0.97983024     -81.0222072
9.062                0.979781067     -81.1498234
9.063                 0.97973175     -81.2777594
9.064                 0.97968229      -81.406016
9.065                0.979632686     -81.5345943
9.066                0.979582937     -81.6634951
9.067                0.979533045     -81.7927193
9.068                0.979483008     -81.9222679
9.069                0.979432826     -82.0521417
9.07                   0.9793825     -82.1823418
9.071                0.979332028      -82.312869
9.072                0.979281411     -82.4437243
9.073                0.979230649     -82.5749086
9.074                0.979179742     -82.7064228
9.075                0.979128688     -82.8382678
9.076                0.979077489     -82.9704447
9.077                0.979026144     -83.1029542
9.078                0.978974653     -83.2357974
9.079                0.978923015     -83.3689752
9.08                 0.978871231     -83.5024885
9.081                  0.9788193     -83.6363383
9.082                0.978767222     -83.7705255
9.083                0.978714998     -83.9050511
9.084                0.978662627     -84.0399159
9.085                0.978610108      -84.175121
9.086                0.978557442     -84.3106673
9.087                0.978504629     -84.4465557
9.088                0.978451668     -84.5827872
9.089                0.978398559     -84.7193627
9.09                 0.978345303     -84.8562832
9.091                0.978291899     -84.9935496
9.092                0.978238346     -85.1311628
9.093                0.978184646      -85.269124
9.094                0.978130798     -85.4074339
9.095                0.978076801     -85.5460935
9.096                0.978022656     -85.6851038
9.097                0.977968362     -85.8244658
9.098                 0.97791392     -85.9641804
9.099                0.977859329     -86.1042486
9.1                  0.977804589     -86.2446712
9.101                0.977749701     -86.3854494
9.102                0.977694664      -86.526584
9.103                0.977639477     -86.6680761
9.104                0.977584142     -86.8099264
9.105                0.977528658     -86.9521362
9.106                0.977473025     -87.0947062
9.107                0.977417243     -87.2376375
9.108                0.977361311      -87.380931
9.109                0.977305231     -87.5245877
9.11                 0.977249001     -87.6686085
9.111                0.977192622     -87.8129945
9.112                0.977136094     -87.9577466
9.113                0.977079417     -88.1028657
9.114                 0.97702259     -88.2483528
9.115                0.976965614      -88.394209
9.116                0.976908489     -88.5404351
9.117                0.976851214     -88.6870321
9.118                 0.97679379      -88.834001
9.119                0.976736218     -88.9813428
9.12                 0.976678495     -89.1290584
9.121                0.976620624     -89.2771488
9.122                0.976562604      -89.425615
9.123                0.976504434     -89.5744579
9.124                0.976446116     -89.7236786
9.125                0.976387649     -89.8732779
9.126                0.976329032     -90.0232569
9.127                0.976270267     -90.1736165
9.128                0.976211353     -90.3243576
9.129                0.976152291     -90.4754814
9.13                  0.97609308     -90.6269886
9.131                 0.97603372     -90.7788804
9.132                0.975974212     -90.9311576
9.133                0.975914555     -91.0838213
9.134                0.975854751     -91.2368724
9.135                0.975794798     -91.3903118
9.136                0.975734698     -91.5441405
9.137                0.975674449     -91.6983596
9.138                0.975614053     -91.8529699
9.139                 0.97555351     -92.0079725
9.14                 0.975492819     -92.1633683
9.141                0.975431981     -92.3191582
9.142                0.975370996     -92.4753432
9.143                0.975309864     -92.6319243
9.144                0.975248585     -92.7889025
9.145                 0.97518716     -92.9462787
9.146                0.975125589     -93.1040538
9.147                0.975063871     -93.2622289
9.148                0.975002008     -93.4208049
9.149                0.974939999     -93.5797827
9.15                 0.974877845     -93.7391633
9.151                0.974815545     -93.8989476
9.152                0.974753101     -94.0591367
9.153                0.974690512     -94.2197314
9.154                0.974627778     -94.3807327
9.155                0.974564901     -94.5421416
9.156                0.974501879      -94.703959
9.157                0.974438714     -94.8661858
9.158                0.974375406     -95.0288231
9.159                0.974311955     -95.1918716
9.16                 0.974248361     -95.3553325
9.161                0.974184625     -95.5192066
9.162                0.974120747     -95.6834948
9.163                0.974056728     -95.8481981
9.164                0.973992567     -96.0133175
9.165                0.973928265     -96.1788538
9.166                0.973863823      -96.344808
9.167                 0.97379924      -96.511181
9.168                0.973734518     -96.6779738
9.169                0.973669657     -96.8451872
9.17                 0.973604656     -97.0128222
9.171                0.973539517     -97.1808798
9.172                 0.97347424     -97.3493607
9.173                0.973408825      -97.518266
9.174                0.973343273     -97.6875966
9.175                0.973277584     -97.8573533
9.176                 0.97321176     -98.0275371
9.177                0.973145799     -98.1981488
9.178                0.973079703     -98.3691894
9.179                0.973013472     -98.5406598
9.18                 0.972947107     -98.7125609
9.181                0.972880608     -98.8848935
9.182                0.972813976     -99.0576586
9.183                0.972747211     -99.2308569
9.184                0.972680315     -99.4044895
9.185                0.972613286     -99.5785572
9.186                0.972546127     -99.7530609
9.187                0.972478838     -99.9280014
9.188                0.972411418      -100.10338
9.189                 0.97234387     -100.279196
9.19                 0.972276193     -100.455453
9.191                0.972208388     -100.632149
9.192                0.972140456     -100.809287
9.193                0.972072398     -100.986866
9.194                0.972004213     -101.164889
9.195                0.971935904     -101.343355
9.196                 0.97186747     -101.522266
9.197                0.971798912     -101.701622
9.198                0.971730231     -101.881424
9.199                0.971661428     -102.061673
9.2                  0.971592504      -102.24237
9.201                0.971523459     -102.423516
9.202                0.971454293     -102.605111
9.203                0.971385009     -102.787157
9.204                0.971315606     -102.969653
9.205                0.971246085     -103.152602
9.206                0.971176448     -103.336003
9.207                0.971106695     -103.519857
9.208                0.971036827     -103.704166
9.209                0.970966845     -103.888929
9.21                  0.97089675     -104.074149
9.211                0.970826542     -104.259825
9.212                0.970756222     -104.445958
9.213                0.970685793     -104.632549
9.214                0.970615253     -104.819599
9.215                0.970544605     -105.007109
9.216                 0.97047385     -105.195079
9.217                0.970402988     -105.383509
9.218                 0.97033202     -105.572402
9.219                0.970260947     -105.761757
9.22                 0.970189771     -105.951575
9.221                0.970118493     -106.141857
9.222                0.970047113     -106.332603
9.223                0.969975632     -106.523815
9.224                0.969904052     -106.715493
9.225                0.969832374     -106.907637
9.226                0.969760599     -107.100248
9.227                0.969688728     -107.293328
9.228                0.969616762     -107.486876
9.229                0.969544703     -107.680893
9.23                 0.969472551      -107.87538
9.231                0.969400308     -108.070338
9.232                0.969327975     -108.265767
9.233                0.969255553     -108.461667
9.234                0.969183044      -108.65804
9.235                0.969110448     -108.854886
9.236                0.969037767     -109.052206
9.237                0.968965003     -109.249999
9.238                0.968892156     -109.448268
9.239                0.968819229     -109.647011
9.24                 0.968746221     -109.846231
9.241                0.968673136     -110.045927
9.242                0.968599973       -110.2461
9.243                0.968526735      -110.44675
9.244                0.968453423     -110.647878
9.245                0.968380038     -110.849485
9.246                0.968306582     -111.051572
9.247                0.968233057     -111.254137
9.248                0.968159463     -111.457183
9.249                0.968085802     -111.660709
9.25                 0.968012076     -111.864716
9.251                0.967938286     -112.069205
9.252                0.967864435     -112.274175
9.253                0.967790522     -112.479628
9.254                0.967716551     -112.685564
9.255                0.967642522     -112.891983
9.256                0.967568438     -113.098885
9.257                0.967494299     -113.306272
9.258                0.967420109     -113.514143
9.259                0.967345867     -113.722498
9.26                 0.967271576     -113.931339
9.261                0.967197239     -114.140665
9.262                0.967122855     -114.350478
9.263                0.967048428     -114.560776
9.264                0.966973959     -114.771561
9.265                0.966899449     -114.982833
9.266                0.966824901     -115.194592
9.267                0.966750316     -115.406838
9.268                0.966675697     -115.619572
9.269                0.966601045     -115.832794
9.27                 0.966526362     -116.046504
9.271                0.966451649     -116.260703
9.272                 0.96637691      -116.47539
9.273                0.966302145     -116.690566
9.274                0.966227357     -116.906232
9.275                0.966152548     -117.122386
9.276                0.966077719     -117.339031
9.277                0.966002873     -117.556164
9.278                0.965928012     -117.773788
9.279                0.965853138     -117.991901
9.28                 0.965778253     -118.210505
9.281                0.965703358     -118.429599
9.282                0.965628457     -118.649183
9.283                0.965553551     -118.869257
9.284                0.965478642     -119.089822
9.285                0.965403733     -119.310877
9.286                0.965328826     -119.532423
9.287                0.965253922     -119.754459
9.288                0.965179025     -119.976986
9.289                0.965104136     -120.200004
9.29                 0.965029258     -120.423512
9.291                0.964954393      -120.64751
9.292                0.964879543     -120.871999
9.293                 0.96480471     -121.096979
9.294                0.964729898     -121.322449
9.295                0.964655108     -121.548409
9.296                0.964580342     -121.774859
9.297                0.964505604     -122.001799
9.298                0.964430895      -122.22923
9.299                0.964356218     -122.457149
9.3                  0.964281576     -122.685559
9.301                 0.96420697     -122.914458
9.302                0.964132403     -123.143846
9.303                0.964057879     -123.373723
9.304                0.963983399     -123.604089
9.305                0.963908965     -123.834943
9.306                0.963834581     -124.066286
9.307                 0.96376025     -124.298116
9.308                0.963685972     -124.530434
9.309                0.963611753      -124.76324
9.31                 0.963537593     -124.996532
9.311                0.963463495     -125.230311
9.312                0.963389463     -125.464577
9.313                0.963315499     -125.699328
9.314                0.963241606     -125.934565
9.315                0.963167786     -126.170287
9.316                0.963094042     -126.406493
9.317                0.963020376     -126.643183
9.318                0.962946793     -126.880358
9.319                0.962873294     -127.118015
9.32                 0.962799882     -127.356155
9.321                0.962726561     -127.594778
9.322                0.962653332     -127.833881
9.323                0.962580199     -128.073466
9.324                0.962507165     -128.313532
9.325                0.962434233     -128.554077
9.326                0.962361405     -128.795101
9.327                0.962288684     -129.036604
9.328                0.962216074     -129.278585
9.329                0.962143577     -129.521043
9.33                 0.962071197     -129.763977
9.331                0.961998935     -130.007387
9.332                0.961926797     -130.251273
9.333                0.961854783     -130.495632
9.334                0.961782898     -130.740465
9.335                0.961711144     -130.985771
9.336                0.961639525     -131.231549
9.337                0.961568044     -131.477797
9.338                0.961496703     -131.724516
9.339                0.961425506     -131.971704
9.34                 0.961354456      -132.21936
9.341                0.961283556     -132.467484
9.342                 0.96121281     -132.716074
9.343                0.961142219      -132.96513
9.344                0.961071789     -133.214651
9.345                0.961001521     -133.464635
9.346                0.960931419     -133.715081
9.347                0.960861486     -133.965989
9.348                0.960791726     -134.217357
9.349                0.960722142     -134.469184
9.35                 0.960652736      -134.72147
9.351                0.960583513     -134.974212
9.352                0.960514475     -135.227411
9.353                0.960445625     -135.481064
9.354                0.960376968      -135.73517
9.355                0.960308507     -135.989729
9.356                0.960240244     -136.244739
9.357                0.960172183     -136.500198
9.358                0.960104327     -136.756106
9.359                 0.96003668     -137.012461
9.36                 0.959969246     -137.269262
9.361                0.959902026     -137.526507
9.362                0.959835026     -137.784195
9.363                0.959768247     -138.042325
9.364                0.959701695     -138.300895
9.365                0.959635371     -138.559904
9.366                0.959569279      -138.81935
9.367                0.959503424     -139.079232
9.368                0.959437808     -139.339548
9.369                0.959372434     -139.600296
9.37                 0.959307306     -139.861476
9.371                0.959242428     -140.123086
9.372                0.959177803     -140.385123
9.373                0.959113434     -140.647587
9.374                0.959049325     -140.910475
9.375                 0.95898548     -141.173787
9.376                0.958921901     -141.437519
9.377                0.958858592     -141.701672
9.378                0.958795557     -141.966242
9.379                0.958732799     -142.231228
9.38                 0.958670322     -142.496628
9.381                0.958608129     -142.762441
9.382                0.958546224     -143.028664
9.383                0.958484609     -143.295296
9.384                0.958423289     -143.562335
9.385                0.958362267     -143.829779
9.386                0.958301546     -144.097626
9.387                0.958241131     -144.365873
9.388                0.958181024      -144.63452
9.389                0.958121228     -144.903564
9.39                 0.958061748     -145.173003
9.391                0.958002587     -145.442835
9.392                0.957943748     -145.713058
9.393                0.957885235     -145.983669
9.394                0.957827051     -146.254668
9.395                0.957769199      -146.52605
9.396                0.957711684     -146.797815
9.397                0.957654508     -147.069961
9.398                0.957597675     -147.342484
9.399                0.957541189     -147.615383
9.4                  0.957485052     -147.888655
9.401                0.957429269     -148.162299
9.402                0.957373842     -148.436311
9.403                0.957318776      -148.71069
9.404                0.957264073     -148.985433
9.405                0.957209736     -149.260538
9.406                 0.95715577     -149.536003
9.407                0.957102178     -149.811824
9.408                0.957048962        -150.088
9.409                0.956996127     -150.364528
9.41                 0.956943676     -150.641406
9.411                0.956891611      -150.91863
9.412                0.956839937       -151.1962
9.413                0.956788657     -151.474111
9.414                0.956737773     -151.752362
9.415                0.956687289     -152.030949
9.416                0.956637209     -152.309871
9.417                0.956587536     -152.589124
9.418                0.956538273     -152.868706
9.419                0.956489422     -153.148615
9.42                 0.956440989     -153.428846
9.421                0.956392974     -153.709399
9.422                0.956345383     -153.990269
9.423                0.956298217     -154.271455
9.424                 0.95625148     -154.552953
9.425                0.956205176     -154.834761
9.426                0.956159306     -155.116876
9.427                0.956113876     -155.399294
9.428                0.956068886     -155.682014
9.429                0.956024341     -155.965032
9.43                 0.955980243     -156.248345
9.431                0.955936596      -156.53195
9.432                0.955893402     -156.815844
9.433                0.955850665     -157.100025
9.434                0.955808387     -157.384489
9.435                0.955766572     -157.669234
9.436                0.955725221     -157.954256
9.437                0.955684339     -158.239552
9.438                0.955643927     -158.525119
9.439                0.955603989     -158.810954
9.44                 0.955564528     -159.097054
9.441                0.955525546     -159.383416
9.442                0.955487045     -159.670036
9.443                 0.95544903     -159.956912
9.444                0.955411502      -160.24404
9.445                0.955374464     -160.531417
9.446                0.955337919      -160.81904
9.447                0.955301869     -161.106905
9.448                0.955266317      -161.39501
9.449                0.955231265      -161.68335
9.45                 0.955196717     -161.971924
9.451                0.955162674     -162.260727
9.452                0.955129139     -162.549755
9.453                0.955096114     -162.839007
9.454                0.955063602     -163.128478
9.455                0.955031605     -163.418164
9.456                0.955000125     -163.708064
9.457                0.954969165     -163.998172
9.458                0.954938727     -164.288486
9.459                0.954908814     -164.579003
9.46                 0.954879427     -164.869718
9.461                0.954850568     -165.160628
9.462                 0.95482224     -165.451731
9.463                0.954794445     -165.743021
9.464                0.954767185     -166.034497
9.465                0.954740462     -166.326154
9.466                0.954714278     -166.617988
9.467                0.954688635     -166.909997
9.468                0.954663534     -167.202176
9.469                0.954638978     -167.494522
9.47                 0.954614969     -167.787031
9.471                0.954591508     -168.079701
9.472                0.954568597     -168.372526
9.473                0.954546238     -168.665504
9.474                0.954524432     -168.958631
9.475                0.954503181     -169.251903
9.476                0.954482488     -169.545317
9.477                0.954462352     -169.838868
9.478                0.954442777     -170.132554
9.479                0.954423762      -170.42637
9.48                 0.954405311     -170.720313
9.481                0.954387424     -171.014378
9.482                0.954370102     -171.308564
9.483                0.954353347     -171.602864
9.484                0.954337161     -171.897277
9.485                0.954321544     -172.191797
9.486                0.954306497     -172.486422
9.487                0.954292023     -172.781147
9.488                0.954278121     -173.075969
9.489                0.954264793     -173.370884
9.49                  0.95425204     -173.665888
9.491                0.954239864     -173.960977
9.492                0.954228264     -174.256148
9.493                0.954217242     -174.551396
9.494                0.954206799     -174.846719
9.495                0.954196935     -175.142111
9.496                0.954187652     -175.437569
9.497                 0.95417895      -175.73309
9.498                0.954170829     -176.028669
9.499                0.954163291     -176.324303
9.5                  0.954156335     -176.619988
9.501                0.954149964      -176.91572
9.502                0.954144176     -177.211494
9.503                0.954138972     -177.507308
9.504                0.954134354     -177.803158
9.505                 0.95413032     -178.099038
9.506                0.954126873     -178.394946
9.507                0.954124011     -178.690878
9.508                0.954121735      -178.98683
9.509                0.954120045     -179.282798
9.51                 0.954118942     -179.578777
9.511                0.954118425     -179.874765
9.512                0.954118495      179.829243
9.513                0.954119151       179.53325
9.514                0.954120394      179.237261
9.515                0.954122223      178.941279
9.516                0.954124639      178.645309
9.517                 0.95412764      178.349354
9.518                0.954131228      178.053417
9.519                0.954135401      177.757504
9.52                  0.95414016      177.461617
9.521                0.954145503      177.165761
9.522                0.954151431       176.86994
9.523                0.954157943      176.574157
9.524                0.954165039      176.278416
9.525                0.954172718      175.982722
9.526                0.954180979      175.687077
9.527                0.954189823      175.391486
9.528                0.954199247      175.095953
9.529                0.954209252      174.800482
9.53                 0.954219837      174.505076
9.531                   0.954231      174.209739
9.532                0.954242742      173.914475
9.533                0.954255061      173.619288
9.534                0.954267956      173.324182
9.535                0.954281427       173.02916
9.536                0.954295472      172.734227
9.537                 0.95431009      172.439386
9.538                 0.95432528       172.14464
9.539                0.954341041      171.849995
9.54                 0.954357372      171.555453
9.541                0.954374271      171.261018
9.542                0.954391738      170.966694
9.543                0.954409771      170.672485
9.544                0.954428368      170.378395
9.545                0.954447528      170.084426
9.546                 0.95446725      169.790584
9.547                0.954487533      169.496872
9.548                0.954508374      169.203293
9.549                0.954529772      168.909851
9.55                 0.954551726      168.616549
9.551                0.954574234      168.323393
9.552                0.954597294      168.030384
9.553                0.954620904      167.737527
9.554                0.954645064      167.444826
9.555                 0.95466977      167.152283
9.556                0.954695022      166.859904
9.557                0.954720817       166.56769
9.558                0.954747153      166.275647
9.559                0.954774028      165.983776
9.56                 0.954801441      165.692083
9.561                 0.95482939      165.400571
9.562                0.954857872      165.109242
9.563                0.954886885      164.818101
9.564                0.954916427      164.527151
9.565                0.954946496      164.236396
9.566                0.954977091      163.945839
9.567                0.955008207      163.655483
9.568                0.955039844      163.365333
9.569                0.955071999      163.075391
9.57                  0.95510467       162.78566
9.571                0.955137854      162.496145
9.572                0.955171549      162.206849
9.573                0.955205752      161.917775
9.574                0.955240462      161.628926
9.575                0.955275675      161.340305
9.576                0.955311389      161.051917
9.577                0.955347602      160.763764
9.578                0.955384311       160.47585
9.579                0.955421513      160.188178
9.58                 0.955459205       159.90075
9.581                0.955497386      159.613572
9.582                0.955536052      159.326644
9.583                0.955575201      159.039972
9.584                 0.95561483      158.753557
9.585                0.955654936      158.467404
9.586                0.955695516      158.181515
9.587                0.955736568      157.895893
9.588                0.955778088      157.610542
9.589                0.955820075      157.325465
9.59                 0.955862524      157.040664
9.591                0.955905433      156.756142
9.592                0.955948799      156.471904
9.593                 0.95599262      156.187951
9.594                0.956036891      155.904287
9.595                0.956081611      155.620915
9.596                0.956126776      155.337837
9.597                0.956172383      155.055057
9.598                0.956218429      154.772577
9.599                0.956264911      154.490401
9.6                  0.956311825      154.208531
9.601                 0.95635917       153.92697