! TOUCHSTONE file generated by CST DESIGN STUDIO
! Date and time: Tue Feb  4 12:29:49 2025
! Project name: C:\Work\MatlabApps\UnitCellOptimizationMatlab\CST\unitcell.cst
! Tree item: Tasks\Sweep1\SPara1\S-Parameters
! Header version: 2024
! Port assignment regex: !\s*Touchstone port\s*([0-9]+)\s*=\s*(CST MWS port|CST DES external port|CST DES block port)\s*(.+)\s* \(\"(.*)\"\)(\s*mode\s*([0-9]+))?.*
! Touchstone port assignment:
! Touchstone port 1 = CST DES external port 1 ("")
# GHz S MA R 50
9                    0.990741038     -70.3821252
9.001                 0.99072102     -70.4830791
9.002                0.990700941     -70.5842719
9.003                0.990680802     -70.6857041
9.004                0.990660601     -70.7873765
9.005                0.990640338     -70.8892898
9.006                0.990620015     -70.9914447
9.007                 0.99059963     -71.0938421
9.008                0.990579183     -71.1964825
9.009                0.990558674     -71.2993667
9.01                 0.990538103     -71.4024954
9.011                 0.99051747     -71.5058695
9.012                0.990496775     -71.6094895
9.013                0.990476017     -71.7133563
9.014                0.990455197     -71.8174705
9.015                0.990434314      -71.921833
9.016                0.990413368     -72.0264444
9.017                0.990392359     -72.1313055
9.018                0.990371286      -72.236417
9.019                 0.99035015     -72.3417798
9.02                 0.990328951     -72.4473944
9.021                0.990307688     -72.5532618
9.022                0.990286361     -72.6593826
9.023                 0.99026497     -72.7657576
9.024                0.990243515     -72.8723875
9.025                0.990221996     -72.9792732
9.026                0.990200412     -73.0864153
9.027                0.990178764     -73.1938147
9.028                0.990157051      -73.301472
9.029                0.990135273     -73.4093881
9.03                  0.99011343     -73.5175638
9.031                0.990091522     -73.6259997
9.032                0.990069548     -73.7346967
9.033                0.990047509     -73.8436556
9.034                0.990025404     -73.9528771
9.035                0.990003234      -74.062362
9.036                0.989980997     -74.1721111
9.037                0.989958695     -74.2821251
9.038                0.989936326     -74.3924049
9.039                0.989913891     -74.5029513
9.04                  0.98989139      -74.613765
9.041                0.989868821     -74.7248467
9.042                0.989846186     -74.8361974
9.043                0.989823484     -74.9478178
9.044                0.989800715     -75.0597087
9.045                0.989777879     -75.1718709
9.046                0.989754975     -75.2843051
9.047                0.989732004     -75.3970123
9.048                0.989708965     -75.5099932
9.049                0.989685859     -75.6232485
9.05                 0.989662684     -75.7367792
9.051                0.989639441      -75.850586
9.052                 0.98961613     -75.9646698
9.053                0.989592751     -76.0790312
9.054                0.989569303     -76.1936713
9.055                0.989545787     -76.3085907
9.056                0.989522202     -76.4237903
9.057                0.989498547      -76.539271
9.058                0.989474824     -76.6550334
9.059                0.989451032     -76.7710786
9.06                  0.98942717     -76.8874072
9.061                0.989403239     -77.0040202
9.062                0.989379239     -77.1209183
9.063                0.989355168     -77.2381023
9.064                0.989331028     -77.3555732
9.065                0.989306818     -77.4733318
9.066                0.989282538     -77.5913788
9.067                0.989258187     -77.7097151
9.068                0.989233766     -77.8283416
9.069                0.989209275     -77.9472592
9.07                 0.989184713     -78.0664685
9.071                 0.98916008     -78.1859706
9.072                0.989135377     -78.3057662
9.073                0.989110602     -78.4258562
9.074                0.989085756     -78.5462415
9.075                 0.98906084     -78.6669229
9.076                0.989035851     -78.7879012
9.077                0.989010792     -78.9091773
9.078                 0.98898566     -79.0307521
9.079                0.988960457     -79.1526264
9.08                 0.988935183     -79.2748011
9.081                0.988909836     -79.3972771
9.082                0.988884417     -79.5200551
9.083                0.988858926     -79.6431362
9.084                0.988833363     -79.7665211
9.085                0.988807727     -79.8902108
9.086                0.988782019      -80.014206
9.087                0.988756238     -80.1385077
9.088                0.988730385     -80.2631167
9.089                0.988704459      -80.388034
9.09                 0.988678459     -80.5132603
9.091                0.988652387     -80.6387967
9.092                0.988626242     -80.7646439
9.093                0.988600023     -80.8908028
9.094                0.988573731     -81.0172743
9.095                0.988547366     -81.1440594
9.096                0.988520927     -81.2711588
9.097                0.988494415     -81.3985735
9.098                0.988467828     -81.5263044
9.099                0.988441168     -81.6543523
9.1                  0.988414434     -81.7827182
9.101                0.988387626      -81.911403
9.102                0.988360744     -82.0404075
9.103                0.988333788     -82.1697326
9.104                0.988306758     -82.2993793
9.105                0.988279653     -82.4293484
9.106                0.988252474     -82.5596408
9.107                 0.98822522     -82.6902575
9.108                0.988197892     -82.8211993
9.109                0.988170489     -82.9524672
9.11                 0.988143012      -83.084062
9.111                0.988115459     -83.2159847
9.112                0.988087832     -83.3482362
9.113                 0.98806013     -83.4808173
9.114                0.988032352      -83.613729
9.115                  0.9880045     -83.7469722
9.116                0.987976572     -83.8805478
9.117                 0.98794857     -84.0144568
9.118                0.987920492        -84.1487
9.119                0.987892339     -84.2832783
9.12                  0.98786411     -84.4181928
9.121                0.987835806     -84.5534442
9.122                0.987807426     -84.6890335
9.123                0.987778971     -84.8249617
9.124                0.987750441     -84.9612296
9.125                0.987721834     -85.0978382
9.126                0.987693152     -85.2347883
9.127                0.987664395      -85.372081
9.128                0.987635561     -85.5097172
9.129                0.987606652     -85.6476977
9.13                 0.987577667     -85.7860235
9.131                0.987548606     -85.9246956
9.132                0.987519469     -86.0637147
9.133                0.987490256      -86.203082
9.134                0.987460968     -86.3427983
9.135                0.987431603     -86.4828645
9.136                0.987402162     -86.6232816
9.137                0.987372646     -86.7640505
9.138                0.987343053     -86.9051721
9.139                0.987313384     -87.0466474
9.14                  0.98728364     -87.1884773
9.141                0.987253819     -87.3306628
9.142                0.987223922     -87.4732046
9.143                0.987193949     -87.6161039
9.144                  0.9871639     -87.7593616
9.145                0.987133775     -87.9029785
9.146                0.987103574     -88.0469556
9.147                0.987073297     -88.1912938
9.148                0.987042944     -88.3359941
9.149                0.987012515     -88.4810575
9.15                  0.98698201     -88.6264848
9.151                0.986951429     -88.7722769
9.152                0.986920772     -88.9184349
9.153                0.986890039     -89.0649597
9.154                 0.98685923     -89.2118522
9.155                0.986828345     -89.3591133
9.156                0.986797385     -89.5067439
9.157                0.986766349     -89.6547451
9.158                0.986735237     -89.8031177
9.159                0.986704049     -89.9518628
9.16                 0.986672786     -90.1009811
9.161                0.986641447     -90.2504737
9.162                0.986610032     -90.4003415
9.163                0.986578542     -90.5505854
9.164                0.986546977     -90.7012064
9.165                0.986515336     -90.8522054
9.166                 0.98648362     -91.0035833
9.167                0.986451829     -91.1553411
9.168                0.986419963     -91.3074798
9.169                0.986388022     -91.4600001
9.17                 0.986356005     -91.6129032
9.171                0.986323914     -91.7661898
9.172                0.986291748      -91.919861
9.173                0.986259508     -92.0739176
9.174                0.986227193     -92.2283607
9.175                0.986194803     -92.3831911
9.176                0.986162339     -92.5384098
9.177                0.986129801     -92.6940176
9.178                0.986097189     -92.8500156
9.179                0.986064503     -93.0064046
9.18                 0.986031742     -93.1631856
9.181                0.985998909     -93.3203595
9.182                0.985966001     -93.4779272
9.183                 0.98593302     -93.6358897
9.184                0.985899966     -93.7942478
9.185                0.985866838     -93.9530025
9.186                0.985833638     -94.1121547
9.187                0.985800364     -94.2717053
9.188                0.985767018     -94.4316553
9.189                0.985733599     -94.5920055
9.19                 0.985700108     -94.7527569
9.191                0.985666545     -94.9139103
9.192                 0.98563291     -95.0754668
9.193                0.985599203     -95.2374271
9.194                0.985565424     -95.3997922
9.195                0.985531574     -95.5625631
9.196                0.985497652     -95.7257405
9.197                 0.98546366     -95.8893255
9.198                0.985429596     -96.0533189
9.199                0.985395462     -96.2177216
9.2                  0.985361258     -96.3825344
9.201                0.985326983     -96.5477584
9.202                0.985292638     -96.7133944
9.203                0.985258224     -96.8794432
9.204                 0.98522374     -97.0459058
9.205                0.985189187     -97.2127831
9.206                0.985154565     -97.3800759
9.207                0.985119874      -97.547785
9.208                0.985085115     -97.7159115
9.209                0.985050287     -97.8844561
9.21                 0.985015392     -98.0534198
9.211                0.984980429     -98.2228033
9.212                0.984945398     -98.3926076
9.213                0.984910301     -98.5628335
9.214                0.984875137     -98.7334819
9.215                0.984839906     -98.9045537
9.216                0.984804609     -99.0760496
9.217                0.984769246     -99.2479706
9.218                0.984733818     -99.4203175
9.219                0.984698324     -99.5930911
9.22                 0.984662765     -99.7662923
9.221                0.984627142     -99.9399219
9.222                0.984591455     -100.113981
9.223                0.984555704      -100.28847
9.224                 0.98451989      -100.46339
9.225                0.984484012     -100.638741
9.226                0.984448072     -100.814525
9.227                0.984412069     -100.990743
9.228                0.984376004     -101.167394
9.229                0.984339877     -101.344481
9.23                  0.98430369     -101.522003
9.231                0.984267441     -101.699962
9.232                0.984231132     -101.878359
9.233                0.984194764     -102.057193
9.234                0.984158335     -102.236467
9.235                0.984121848      -102.41618
9.236                0.984085301     -102.596334
9.237                0.984048697     -102.776929
9.238                0.984012035     -102.957966
9.239                0.983975315     -103.139446
9.24                 0.983938539     -103.321369
9.241                0.983901706     -103.503737
9.242                0.983864817      -103.68655
9.243                0.983827873     -103.869808
9.244                0.983790873     -104.053514
9.245                 0.98375382     -104.237666
9.246                0.983716712     -104.422267
9.247                0.983679551     -104.607316
9.248                0.983642338     -104.792814
9.249                0.983605071     -104.978763
9.25                 0.983567753     -105.165163
9.251                0.983530384     -105.352014
9.252                0.983492964     -105.539317
9.253                0.983455494     -105.727074
9.254                0.983417974     -105.915283
9.255                0.983380406     -106.103948
9.256                0.983342789     -106.293067
9.257                0.983305124     -106.482642
9.258                0.983267412     -106.672673
9.259                0.983229653      -106.86316
9.26                 0.983191848     -107.054106
9.261                0.983153998     -107.245509
9.262                0.983116103     -107.437372
9.263                0.983078165     -107.629694
9.264                0.983040182     -107.822476
9.265                0.983002157     -108.015718
9.266                 0.98296409     -108.209422
9.267                0.982925982     -108.403587
9.268                0.982887833     -108.598215
9.269                0.982849643     -108.793306
9.27                 0.982811415      -108.98886
9.271                0.982773148     -109.184879
9.272                0.982734843     -109.381362
9.273                0.982696501     -109.578311
9.274                0.982658122     -109.775725
9.275                0.982619708     -109.973605
9.276                0.982581258     -110.171952
9.277                0.982542775     -110.370767
9.278                0.982504258     -110.570049
9.279                0.982465709     -110.769799
9.28                 0.982427128     -110.970019
9.281                0.982388516     -111.170707
9.282                0.982349874     -111.371865
9.283                0.982311202     -111.573494
9.284                0.982272502     -111.775592
9.285                0.982233774     -111.978162
9.286                0.982195019     -112.181204
9.287                0.982156239     -112.384717
9.288                0.982117433     -112.588703
9.289                0.982078603     -112.793161
9.29                 0.982039749     -112.998092
9.291                0.982000873     -113.203497
9.292                0.981961976     -113.409376
9.293                0.981923057     -113.615728
9.294                 0.98188412     -113.822556
9.295                0.981845163     -114.029858
9.296                0.981806188     -114.237635
9.297                0.981767197     -114.445888
9.298                0.981728189     -114.654617
9.299                0.981689167     -114.863822
9.3                  0.981650131     -115.073503
9.301                0.981611081     -115.283661
9.302                 0.98157202     -115.494295
9.303                0.981532947     -115.705407
9.304                0.981493865     -115.916997
9.305                0.981454773     -116.129063
9.306                0.981415674     -116.341608
9.307                0.981376568     -116.554631
9.308                0.981337456     -116.768132
9.309                0.981298339     -116.982111
9.31                 0.981259219     -117.196569
9.311                0.981220096     -117.411506
9.312                0.981180972     -117.626922
9.313                0.981141847     -117.842816
9.314                0.981102723      -118.05919
9.315                0.981063601     -118.276043
9.316                0.981024481     -118.493375
9.317                0.980985366     -118.711187
9.318                0.980946257     -118.929478
9.319                0.980907153     -119.148248
9.32                 0.980868058     -119.367498
9.321                0.980828971     -119.587227
9.322                0.980789894     -119.807436
9.323                0.980750829     -120.028125
9.324                0.980711776     -120.249293
9.325                0.980672736     -120.470941
9.326                0.980633712     -120.693068
9.327                0.980594703     -120.915674
9.328                0.980555712     -121.138759
9.329                 0.98051674     -121.362324
9.33                 0.980477788     -121.586368
9.331                0.980438857     -121.810891
9.332                0.980399948     -122.035893
9.333                0.980361063     -122.261373
9.334                0.980322204     -122.487332
9.335                0.980283371     -122.713769
9.336                0.980244565     -122.940684
9.337                0.980205789     -123.168077
9.338                0.980167043     -123.395948
9.339                0.980128329     -123.624296
9.34                 0.980089649     -123.853122
9.341                0.980051003     -124.082424
9.342                0.980012392     -124.312203
9.343                 0.97997382     -124.542458
9.344                0.979935286     -124.773189
9.345                0.979896792     -125.004396
9.346                0.979858339     -125.236078
9.347                 0.97981993     -125.468235
9.348                0.979781566     -125.700867
9.349                0.979743247     -125.933972
9.35                 0.979704976     -126.167551
9.351                0.979666753     -126.401603
9.352                0.979628581     -126.636129
9.353                0.979590461     -126.871126
9.354                0.979552394     -127.106595
9.355                0.979514382     -127.342535
9.356                0.979476426     -127.578946
9.357                0.979438528     -127.815827
9.358                 0.97940069     -128.053178
9.359                0.979362913     -128.290998
9.36                 0.979325198     -128.529286
9.361                0.979287547     -128.768042
9.362                0.979249962     -129.007265
9.363                0.979212443     -129.246954
9.364                0.979174994      -129.48711
9.365                0.979137615      -129.72773
9.366                0.979100308     -129.968815
9.367                0.979063075     -130.210363
9.368                0.979025917     -130.452374
9.369                0.978988835     -130.694848
9.37                 0.978951832     -130.937782
9.371                0.978914909     -131.181177
9.372                0.978878068     -131.425032
9.373                 0.97884131     -131.669346
9.374                0.978804637     -131.914117
9.375                0.978768051     -132.159346
9.376                0.978731552      -132.40503
9.377                0.978695144      -132.65117
9.378                0.978658828     -132.897764
9.379                0.978622605     -133.144812
9.38                 0.978586477     -133.392311
9.381                0.978550446     -133.640262
9.382                0.978514513     -133.888663
9.383                0.978478681     -134.137514
9.384                 0.97844295     -134.386812
9.385                0.978407323     -134.636558
9.386                0.978371802     -134.886749
9.387                0.978336387     -135.137385
9.388                0.978301082     -135.388465
9.389                0.978265886     -135.639987
9.39                 0.978230804      -135.89195
9.391                0.978195835     -136.144353
9.392                0.978160982     -136.397196
9.393                0.978126247     -136.650475
9.394                0.978091631     -136.904191
9.395                0.978057136     -137.158342
9.396                0.978022764     -137.412926
9.397                0.977988517     -137.667942
9.398                0.977954396      -137.92339
9.399                0.977920404     -138.179266
9.4                  0.977886541     -138.435571
9.401                0.977852811     -138.692303
9.402                0.977819214      -138.94946
9.403                0.977785752      -139.20704
9.404                0.977752428     -139.465042
9.405                0.977719243     -139.723466
9.406                0.977686199     -139.982308
9.407                0.977653297     -140.241568
9.408                 0.97762054     -140.501244
9.409                0.977587929     -140.761334
9.41                 0.977555467     -141.021837
9.411                0.977523154     -141.282751
9.412                0.977490993     -141.544074
9.413                0.977458986     -141.805805
9.414                0.977427134     -142.067942
9.415                0.977395439     -142.330484
9.416                0.977363903     -142.593427
9.417                0.977332528     -142.856772
9.418                0.977301316     -143.120515
9.419                0.977270268     -143.384656
9.42                 0.977239387     -143.649191
9.421                0.977208673      -143.91412
9.422                 0.97717813      -144.17944
9.423                0.977147758      -144.44515
9.424                 0.97711756     -144.711248
9.425                0.977087537     -144.977731
9.426                0.977057692     -145.244597
9.427                0.977028025     -145.511845
9.428                 0.97699854     -145.779473
9.429                0.976969237     -146.047478
9.43                 0.976940118     -146.315859
9.431                0.976911185     -146.584613
9.432                0.976882441     -146.853738
9.433                0.976853886     -147.123233
9.434                0.976825523     -147.393094
9.435                0.976797354      -147.66332
9.436                0.976769379     -147.933908
9.437                0.976741602     -148.204857
9.438                0.976714023     -148.476164
9.439                0.976686645     -148.747826
9.44                 0.976659469     -149.019843
9.441                0.976632497      -149.29221
9.442                0.976605731     -149.564926
9.443                0.976579172     -149.837988
9.444                0.976552822     -150.111395
9.445                0.976526684     -150.385143
9.446                0.976500758     -150.659231
9.447                0.976475046     -150.933655
9.448                0.976449551     -151.208413
9.449                0.976424274     -151.483504
9.45                 0.976399216     -151.758924
9.451                0.976374379      -152.03467
9.452                0.976349765     -152.310741
9.453                0.976325376     -152.587134
9.454                0.976301213     -152.863845
9.455                0.976277278     -153.140873
9.456                0.976253572     -153.418215
9.457                0.976230098     -153.695868
9.458                0.976206857      -153.97383
9.459                 0.97618385     -154.252097
9.46                 0.976161079     -154.530667
9.461                0.976138545     -154.809538
9.462                0.976116251     -155.088707
9.463                0.976094198      -155.36817
9.464                0.976072387     -155.647925
9.465                 0.97605082     -155.927969
9.466                0.976029499       -156.2083
9.467                0.976008425     -156.488915
9.468                0.975987599     -156.769809
9.469                0.975967023     -157.050982
9.47                 0.975946699      -157.33243
9.471                0.975926628     -157.614149
9.472                0.975906811     -157.896137
9.473                 0.97588725     -158.178392
9.474                0.975867947     -158.460909
9.475                0.975848903     -158.743686
9.476                0.975830118     -159.026721
9.477                0.975811596     -159.310009
9.478                0.975793336     -159.593548
9.479                0.975775341     -159.877335
9.48                 0.975757612     -160.161366
9.481                0.975740149     -160.445639
9.482                0.975722956     -160.730151
9.483                0.975706032     -161.014898
9.484                0.975689379     -161.299877
9.485                0.975672998     -161.585085
9.486                0.975656891     -161.870518
9.487                0.975641059     -162.156175
9.488                0.975625502      -162.44205
9.489                0.975610224     -162.728142
9.49                 0.975595223     -163.014446
9.491                0.975580502      -163.30096
9.492                0.975566062     -163.587681
9.493                0.975551905     -163.874604
9.494                 0.97553803     -164.161727
9.495                0.975524439     -164.449046
9.496                0.975511134     -164.736559
9.497                0.975498115      -165.02426
9.498                0.975485383     -165.312148
9.499                 0.97547294     -165.600219
9.5                  0.975460786      -165.88847
9.501                0.975448923     -166.176896
9.502                0.975437351     -166.465495
9.503                0.975426072     -166.754263
9.504                0.975415086     -167.043196
9.505                0.975404394     -167.332292
9.506                0.975393997     -167.621547
9.507                0.975383896     -167.910957
9.508                0.975374093     -168.200519
9.509                0.975364586     -168.490228
9.51                 0.975355379     -168.780083
9.511                 0.97534647     -169.070079
9.512                0.975337862     -169.360212
9.513                0.975329555      -169.65048
9.514                0.975321549     -169.940877
9.515                0.975313845     -170.231402
9.516                0.975306445     -170.522051
9.517                0.975299348     -170.812818
9.518                0.975292555     -171.103702
9.519                0.975286067     -171.394699
9.52                 0.975279884     -171.685805
9.521                0.975274008     -171.977015
9.522                0.975268438     -172.268328
9.523                0.975263175     -172.559738
9.524                 0.97525822     -172.851243
9.525                0.975253573     -173.142838
9.526                0.975249234      -173.43452
9.527                0.975245205     -173.726286
9.528                0.975241485     -174.018131
9.529                0.975238075     -174.310052
9.53                 0.975234975     -174.602046
9.531                0.975232185     -174.894108
9.532                0.975229706     -175.186235
9.533                0.975227539     -175.478423
9.534                0.975225683     -175.770668
9.535                0.975224138     -176.062968
9.536                0.975222906     -176.355317
9.537                0.975221985     -176.647712
9.538                0.975221377      -176.94015
9.539                0.975221081     -177.232627
9.54                 0.975221098     -177.525139
9.541                0.975221427     -177.817682
9.542                 0.97522207     -178.110253
9.543                0.975223025     -178.402847
9.544                0.975224293     -178.695462
9.545                0.975225873     -178.988093
9.546                0.975227767     -179.280737
9.547                0.975229973     -179.573389
9.548                0.975232493     -179.866047
9.549                0.975235324      179.841294
9.55                 0.975238469      179.548637
9.551                0.975241926      179.255987
9.552                0.975245695      178.963346
9.553                0.975249776      178.670719
9.554                0.975254169       178.37811
9.555                0.975258874      178.085522
9.556                 0.97526389      177.792958
9.557                0.975269218      177.500423
9.558                0.975274856      177.207921
9.559                0.975280805      176.915454
9.56                 0.975287064      176.623028
9.561                0.975293633      176.330645
9.562                0.975300511      176.038309
9.563                0.975307698      175.746024
9.564                0.975315194      175.453795
9.565                0.975322998      175.161623
9.566                 0.97533111      174.869514
9.567                0.975339529       174.57747
9.568                0.975348254      174.285497
9.569                0.975357285      173.993596
9.57                 0.975366622      173.701773
9.571                0.975376264       173.41003
9.572                 0.97538621      173.118371
9.573                0.975396459      172.826801
9.574                0.975407012      172.535322
9.575                0.975417866      172.243938
9.576                0.975429023      171.952654
9.577                 0.97544048      171.661472
9.578                0.975452237      171.370396
9.579                0.975464293      171.079431
9.58                 0.975476648      170.788579
9.581                  0.9754893      170.497844
9.582                0.975502249      170.207229
9.583                0.975515495      169.916739
9.584                0.975529035      169.626377
9.585                0.975542869      169.336147
9.586                0.975556997      169.046051
9.587                0.975571417      168.756094
9.588                0.975586128       168.46628
9.589                 0.97560113      168.176611
9.59                 0.975616421      167.887091
9.591                   0.975632      167.597724
9.592                0.975647866      167.308513
9.593                0.975664019      167.019462
9.594                0.975680457      166.730574
9.595                0.975697178      166.441852
9.596                0.975714183      166.153301
9.597                 0.97573147      165.864923
9.598                0.975749037      165.576723
9.599                0.975766883      165.288702
9.6                  0.975785008      165.000866
9.601                0.975803409      164.713216