! TOUCHSTONE file generated by CST DESIGN STUDIO
! Date and time: Tue Feb  4 17:39:15 2025
! Project name: C:\Work\MatlabApps\UnitCellOptimizationMatlab\CST\unitcell.cst
! Tree item: Tasks\Sweep1\SPara1\S-Parameters
! Header version: 2024
! Port assignment regex: !\s*Touchstone port\s*([0-9]+)\s*=\s*(CST MWS port|CST DES external port|CST DES block port)\s*(.+)\s* \(\"(.*)\"\)(\s*mode\s*([0-9]+))?.*
! Touchstone port assignment:
! Touchstone port 1 = CST DES external port 1 ("")
# GHz S MA R 50
9                    0.910485504     -75.3402865
9.001                0.910218635     -75.4682965
9.002                0.909950753     -75.5966677
9.003                0.909681857     -75.7254013
9.004                0.909411943     -75.8544985
9.005                0.909141009     -75.9839607
9.006                0.908869051     -76.1137891
9.007                0.908596067      -76.243985
9.008                0.908322054     -76.3745497
9.009                 0.90804701     -76.5054844
9.01                  0.90777093     -76.6367905
9.011                0.907493814     -76.7684693
9.012                0.907215658      -76.900522
9.013                0.906936459       -77.03295
9.014                0.906656214     -77.1657545
9.015                0.906374922      -77.298937
9.016                0.906092579     -77.4324986
9.017                0.905809182     -77.5664408
9.018                0.905524729     -77.7007648
9.019                0.905239217     -77.8354719
9.02                 0.904952643     -77.9705636
9.021                0.904665006     -78.1060411
9.022                0.904376301     -78.2419059
9.023                0.904086527     -78.3781591
9.024                0.903795681     -78.5148022
9.025                0.903503761     -78.6518366
9.026                0.903210763     -78.7892635
9.027                0.902916685     -78.9270844
9.028                0.902621526     -79.0653006
9.029                0.902325281     -79.2039135
9.03                 0.902027949     -79.3429245
9.031                0.901729527     -79.4823349
9.032                0.901430012     -79.6221461
9.033                0.901129403     -79.7623595
9.034                0.900827696     -79.9029765
9.035                 0.90052489     -80.0439985
9.036                0.900220982     -80.1854268
9.037                0.899915969      -80.327263
9.038                0.899609849     -80.4695083
9.039                0.899302619     -80.6121643
9.04                 0.898994278     -80.7552322
9.041                0.898684823     -80.8987135
9.042                0.898374252     -81.0426097
9.043                0.898062562     -81.1869222
9.044                0.897749751     -81.3316524
9.045                0.897435817     -81.4768017
9.046                0.897120758     -81.6223715
9.047                0.896804571     -81.7683633
9.048                0.896487255     -81.9147786
9.049                0.896168806     -82.0616188
9.05                 0.895849224     -82.2088853
9.051                0.895528505     -82.3565796
9.052                0.895206648     -82.5047031
9.053                0.894883652     -82.6532574
9.054                0.894559512     -82.8022438
9.055                0.894234229     -82.9516639
9.056                0.893907799     -83.1015191
9.057                0.893580221     -83.2518109
9.058                0.893251492     -83.4025407
9.059                0.892921612     -83.5537101
9.06                 0.892590578     -83.7053205
9.061                0.892258388     -83.8573735
9.062                 0.89192504     -84.0098705
9.063                0.891590534     -84.1628129
9.064                0.891254866     -84.3162024
9.065                0.890918035     -84.4700405
9.066                0.890580039     -84.6243285
9.067                0.890240878     -84.7790681
9.068                0.889900549     -84.9342607
9.069                 0.88955905     -85.0899078
9.07                  0.88921638     -85.2460111
9.071                0.888872538     -85.4025719
9.072                0.888527523     -85.5595919
9.073                0.888181331     -85.7170726
9.074                0.887833963     -85.8750154
9.075                0.887485417     -86.0334219
9.076                0.887135691     -86.1922937
9.077                0.886784785     -86.3516323
9.078                0.886432697     -86.5114392
9.079                0.886079425      -86.671716
9.08                 0.885724969     -86.8324643
9.081                0.885369327     -86.9936855
9.082                0.885012499     -87.1553813
9.083                0.884654482     -87.3175532
9.084                0.884295278     -87.4802027
9.085                0.883934883     -87.6433315
9.086                0.883573298     -87.8069411
9.087                0.883210522      -87.971033
9.088                0.882846553     -88.1356088
9.089                0.882481391     -88.3006701
9.09                 0.882115035     -88.4662185
9.091                0.881747485     -88.6322556
9.092                0.881378739     -88.7987829
9.093                0.881008798      -88.965802
9.094                 0.88063766     -89.1333145
9.095                0.880265326     -89.3013219
9.096                0.879891795      -89.469826
9.097                0.879517066     -89.6388282
9.098                0.879141139     -89.8083301
9.099                0.878764013     -89.9783335
9.1                   0.87838569     -90.1488397
9.101                0.878006167     -90.3198505
9.102                0.877625446     -90.4913674
9.103                0.877243527     -90.6633921
9.104                0.876860408     -90.8359261
9.105                0.876476091      -91.008971
9.106                0.876090575     -91.1825286
9.107                0.875703861     -91.3566002
9.108                0.875315949     -91.5311877
9.109                0.874926839     -91.7062925
9.11                 0.874536531     -91.8819163
9.111                0.874145026     -92.0580608
9.112                0.873752325     -92.2347274
9.113                0.873358428     -92.4119179
9.114                0.872963335     -92.5896338
9.115                0.872567048     -92.7678768
9.116                0.872169567     -92.9466484
9.117                0.871770893     -93.1259504
9.118                0.871371026     -93.3057843
9.119                0.870969968     -93.4861517
9.12                 0.870567721     -93.6670543
9.121                0.870164284     -93.8484936
9.122                0.869759659     -94.0304713
9.123                0.869353848     -94.2129891
9.124                0.868946851     -94.3960485
9.125                0.868538671     -94.5796511
9.126                0.868129308     -94.7637986
9.127                0.867718764     -94.9484926
9.128                0.867307042     -95.1337347
9.129                0.866894142     -95.3195265
9.13                 0.866480066     -95.5058697
9.131                0.866064817     -95.6927659
9.132                0.865648395     -95.8802167
9.133                0.865230805     -96.0682236
9.134                0.864812046     -96.2567884
9.135                0.864392123     -96.4459126
9.136                0.863971036     -96.6355979
9.137                0.863548789     -96.8258458
9.138                0.863125383      -97.016658
9.139                0.862700823     -97.2080361
9.14                 0.862275109     -97.3999817
9.141                0.861848245     -97.5924963
9.142                0.861420234     -97.7855817
9.143                0.860991079     -97.9792394
9.144                0.860560783      -98.173471
9.145                0.860129348     -98.3682781
9.146                0.859696779     -98.5636623
9.147                0.859263078     -98.7596253
9.148                0.858828249     -98.9561685
9.149                0.858392296     -99.1532936
9.15                 0.857955221     -99.3510022
9.151                 0.85751703     -99.5492958
9.152                0.857077725      -99.748176
9.153                0.856637311     -99.9476445
9.154                0.856195791     -100.147703
9.155                0.855753171     -100.348352
9.156                0.855309453     -100.549595
9.157                0.854864643     -100.751432
9.158                0.854418745     -100.953865
9.159                0.853971763     -101.156896
9.16                 0.853523703     -101.360526
9.161                0.853074569     -101.564756
9.162                0.852624366     -101.769589
9.163                0.852173098     -101.975026
9.164                0.851720773     -102.181068
9.165                0.851267393     -102.387717
9.166                0.850812966     -102.594974
9.167                0.850357496     -102.802841
9.168                0.849900989      -103.01132
9.169                0.849443451     -103.220411
9.17                 0.848984887     -103.430117
9.171                0.848525305     -103.640439
9.172                0.848064709     -103.851378
9.173                0.847603107     -104.062936
9.174                0.847140503     -104.275115
9.175                0.846676906     -104.487915
9.176                0.846212322     -104.701339
9.177                0.845746757     -104.915388
9.178                0.845280218     -105.130062
9.179                0.844812713     -105.345365
9.18                 0.844344249     -105.561296
9.181                0.843874832     -105.777858
9.182                 0.84340447     -105.995052
9.183                0.842933172      -106.21288
9.184                0.842460944     -106.431342
9.185                0.841987795      -106.65044
9.186                0.841513732     -106.870176
9.187                0.841038763     -107.090551
9.188                0.840562898     -107.311566
9.189                0.840086143     -107.533223
9.19                 0.839608509     -107.755523
9.191                0.839130003     -107.978467
9.192                0.838650635     -108.202057
9.193                0.838170413     -108.426293
9.194                0.837689347     -108.651179
9.195                0.837207445     -108.876713
9.196                0.836724718     -109.102899
9.197                0.836241175     -109.329737
9.198                0.835756825     -109.557228
9.199                0.835271679     -109.785374
9.2                  0.834785747     -110.014176
9.201                0.834299039     -110.243636
9.202                0.833811565     -110.473753
9.203                0.833323336      -110.70453
9.204                0.832834362     -110.935968
9.205                0.832344654     -111.168068
9.206                0.831854224     -111.400831
9.207                0.831363083     -111.634259
9.208                0.830871241     -111.868352
9.209                 0.83037871     -112.103111
9.21                 0.829885503     -112.338538
9.211                 0.82939163     -112.574634
9.212                0.828897104       -112.8114
9.213                0.828401937     -113.048837
9.214                0.827906141     -113.286945
9.215                0.827409729     -113.525727
9.216                0.826912713     -113.765183
9.217                0.826415106     -114.005314
9.218                0.825916922     -114.246121
9.219                0.825418172     -114.487604
9.22                 0.824918872     -114.729766
9.221                0.824419033     -114.972607
9.222                0.823918671     -115.216128
9.223                0.823417798     -115.460329
9.224                0.822916428     -115.705212
9.225                0.822414577     -115.950777
9.226                0.821912258     -116.197026
9.227                0.821409485     -116.443959
9.228                0.820906274     -116.691577
9.229                0.820402639      -116.93988
9.23                 0.819898596      -117.18887
9.231                0.819394159     -117.438548
9.232                0.818889345     -117.688913
9.233                0.818384168     -117.939967
9.234                0.817878644      -118.19171
9.235                 0.81737279     -118.444144
9.236                0.816866621     -118.697268
9.237                0.816360155     -118.951084
9.238                0.815853406     -119.205591
9.239                0.815346393     -119.460791
9.24                 0.814839131     -119.716685
9.241                0.814331638     -119.973271
9.242                0.813823932     -120.230552
9.243                0.813316029     -120.488527
9.244                0.812807947     -120.747198
9.245                0.812299703     -121.006564
9.246                0.811791317     -121.266625
9.247                0.811282805     -121.527383
9.248                0.810774186     -121.788838
9.249                0.810265479      -122.05099
9.25                 0.809756702     -122.313839
9.251                0.809247875     -122.577385
9.252                0.808739015     -122.841629
9.253                0.808230143     -123.106572
9.254                0.807721277     -123.372212
9.255                0.807212437     -123.638551
9.256                0.806703643     -123.905588
9.257                0.806194916     -124.173324
9.258                0.805686274     -124.441759
9.259                0.805177738     -124.710893
9.26                 0.804669329     -124.980725
9.261                0.804161067     -125.251256
9.262                0.803652973     -125.522486
9.263                0.803145067     -125.794414
9.264                0.802637372     -126.067041
9.265                0.802129909     -126.340367
9.266                0.801622698     -126.614391
9.267                0.801115762     -126.889113
9.268                0.800609122     -127.164533
9.269                0.800102801      -127.44065
9.27                  0.79959682     -127.717465
9.271                0.799091202     -127.994977
9.272                 0.79858597     -128.273185
9.273                0.798081145      -128.55209
9.274                0.797576751      -128.83169
9.275                0.797072812     -129.111986
9.276                0.796569349     -129.392976
9.277                0.796066387     -129.674661
9.278                0.795563949      -129.95704
9.279                0.795062058     -130.240111
9.28                 0.794560738     -130.523875
9.281                0.794060014     -130.808331
9.282                0.793559909     -131.093478
9.283                0.793060448     -131.379316
9.284                0.792561655     -131.665842
9.285                0.792063555     -131.953058
9.286                0.791566172     -132.240961
9.287                0.791069531     -132.529551
9.288                0.790573658     -132.818827
9.289                0.790078577     -133.108788
9.29                 0.789584314     -133.399433
9.291                0.789090894     -133.690761
9.292                0.788598343      -133.98277
9.293                0.788106686      -134.27546
9.294                 0.78761595     -134.568829
9.295                 0.78712616     -134.862876
9.296                0.786637342     -135.157601
9.297                0.786149523        -135.453
9.298                0.785662728     -135.749074
9.299                0.785176986     -136.045821
9.3                  0.784692321     -136.343238
9.301                0.784208761     -136.641326
9.302                0.783726332     -136.940081
9.303                0.783245062     -137.239504
9.304                0.782764977     -137.539591
9.305                0.782286106     -137.840342
9.306                0.781808474     -138.141754
9.307                0.781332109     -138.443826
9.308                0.780857039     -138.746556
9.309                0.780383291     -139.049942
9.31                 0.779910893     -139.353982
9.311                0.779439873     -139.658675
9.312                0.778970258     -139.964018
9.313                0.778502077     -140.270009
9.314                0.778035357     -140.576646
9.315                0.777570126     -140.883928
9.316                0.777106412     -141.191851
9.317                0.776644244     -141.500413
9.318                 0.77618365     -141.809613
9.319                0.775724659     -142.119448
9.32                 0.775267297     -142.429915
9.321                0.774811595     -142.741013
9.322                 0.77435758     -143.052738
9.323                0.773905282     -143.365088
9.324                0.773454727     -143.678061
9.325                0.773005946     -143.991653
9.326                0.772558967     -144.305863
9.327                0.772113818     -144.620687
9.328                0.771670528     -144.936123
9.329                0.771229127     -145.252167
9.33                 0.770789642     -145.568818
9.331                0.770352102     -145.886071
9.332                0.769916536     -146.203925
9.333                0.769482974     -146.522375
9.334                0.769051443      -146.84142
9.335                0.768621973     -147.161055
9.336                0.768194592     -147.481278
9.337                0.767769329     -147.802085
9.338                0.767346213     -148.123472
9.339                0.766925272     -148.445438
9.34                 0.766506536     -148.767978
9.341                0.766090033     -149.091088
9.342                0.765675791     -149.414766
9.343                0.765263839     -149.739008
9.344                0.764854207      -150.06381
9.345                0.764446922     -150.389168
9.346                0.764042012     -150.715079
9.347                0.763639507     -151.041539
9.348                0.763239434     -151.368544
9.349                0.762841823      -151.69609
9.35                   0.7624467     -152.024174
9.351                0.762054095     -152.352791
9.352                0.761664035     -152.681938
9.353                0.761276549     -153.011609
9.354                0.760891664     -153.341802
9.355                0.760509408     -153.672512
9.356                0.760129809     -154.003735
9.357                0.759752894     -154.335466
9.358                0.759378691     -154.667702
9.359                0.759007228     -155.000437
9.36                 0.758638531     -155.333667
9.361                0.758272627     -155.667389
9.362                0.757909545     -156.001596
9.363                 0.75754931     -156.336286
9.364                0.757191949     -156.671452
9.365                0.756837489     -157.007091
9.366                0.756485957     -157.343197
9.367                0.756137379     -157.679766
9.368                 0.75579178     -158.016794
9.369                0.755449187     -158.354274
9.37                 0.755109626     -158.692203
9.371                0.754773122     -159.030574
9.372                  0.7544397     -159.369384
9.373                0.754109387     -159.708627
9.374                0.753782206     -160.048298
9.375                0.753458184     -160.388392
9.376                0.753137344     -160.728904
9.377                0.752819711     -161.069827
9.378                 0.75250531     -161.411158
9.379                0.752194164      -161.75289
9.38                 0.751886297     -162.095019
9.381                0.751581733     -162.437538
9.382                0.751280495     -162.780442
9.383                0.750982607     -163.123727
9.384                0.750688091     -163.467385
9.385                 0.75039697     -163.811412
9.386                0.750109266     -164.155801
9.387                0.749825002     -164.500548
9.388                  0.7495442     -164.845646
9.389                 0.74926688      -165.19109
9.39                 0.748993066     -165.536873
9.391                0.748722776     -165.882991
9.392                0.748456034     -166.229436
9.393                0.748192858     -166.576203
9.394                0.747933269     -166.923286
9.395                0.747677288     -167.270679
9.396                0.747424934     -167.618376
9.397                0.747176226      -167.96637
9.398                0.746931184     -168.314656
9.399                0.746689826     -168.663228
9.4                  0.746452171     -169.012078
9.401                0.746218237     -169.361202
9.402                0.745988041     -169.710592
9.403                0.745761602     -170.060243
9.404                0.745538936     -170.410147
9.405                 0.74532006     -170.760299
9.406                0.745104992     -171.110692
9.407                0.744893746      -171.46132
9.408                 0.74468634     -171.812176
9.409                0.744482787     -172.163254
9.41                 0.744283105     -172.514547
9.411                0.744087307     -172.866049
9.412                0.743895407     -173.217752
9.413                0.743707421     -173.569651
9.414                0.743523362     -173.921739
9.415                0.743343242     -174.274009
9.416                0.743167076     -174.626454
9.417                0.742994876     -174.979068
9.418                0.742826653     -175.331844
9.419                0.742662421     -175.684776
9.42                  0.74250219     -176.037855
9.421                0.742345972     -176.391076
9.422                0.742193777     -176.744432
9.423                0.742045616     -177.097916
9.424                0.741901498     -177.451521
9.425                0.741761434     -177.805241
9.426                0.741625433     -178.159067
9.427                0.741493503     -178.512995
9.428                0.741365653     -178.867015
9.429                 0.74124189     -179.221123
9.43                 0.741122223      -179.57531
9.431                0.741006659     -179.929569
9.432                0.740895204      179.716105
9.433                0.740787865      179.361721
9.434                0.740684648      179.007285
9.435                0.740585558      178.652804
9.436                0.740490602      178.298285
9.437                0.740399782      177.943735
9.438                0.740313105      177.589162
9.439                0.740230574      177.234571
9.44                 0.740152192      176.879971
9.441                0.740077963      176.525368
9.442                0.740007889      176.170769
9.443                0.739941973      175.816182
9.444                0.739880217      175.461612
9.445                0.739822622      175.107068
9.446                0.739769189      174.752557
9.447                0.739719919      174.398084
9.448                0.739674813      174.043658
9.449                0.739633869      173.689285
9.45                 0.739597089      173.334972
9.451                 0.73956447      172.980727
9.452                0.739536011      172.626556
9.453                0.739511711      172.272466
9.454                0.739491567      171.918464
9.455                0.739475577      171.564558
9.456                0.739463737      171.210753
9.457                0.739456045      170.857057
9.458                0.739452497      170.503478
9.459                0.739453088      170.150021
9.46                 0.739457814      169.796694
9.461                 0.73946667      169.443504
9.462                 0.73947965      169.090457
9.463                0.739496749       168.73756
9.464                 0.73951796       168.38482
9.465                0.739543277      168.032244
9.466                0.739572693      167.679839
9.467                  0.7396062      167.327612
9.468                0.739643792      166.975568
9.469                0.739685458      166.623716
9.47                 0.739731192      166.272061
9.471                0.739780984       165.92061
9.472                0.739834825       165.56937
9.473                0.739892706      165.218348
9.474                0.739954615       164.86755
9.475                0.740020544      164.516982
9.476                 0.74009048      164.166652
9.477                0.740164414      163.816566
9.478                0.740242333      163.466729
9.479                0.740324226       163.11715
9.48                  0.74041008      162.767833
9.481                0.740499884      162.418786
9.482                0.740593623      162.070015
9.483                0.740691285      161.721526
9.484                0.740792856      161.373326
9.485                0.740898323       161.02542
9.486                0.741007671      160.677815
9.487                0.741120885      160.330517
9.488                0.741237951      159.983533
9.489                0.741358854      159.636867
9.49                 0.741483577      159.290528
9.491                0.741612105      158.944519
9.492                0.741744422      158.598849
9.493                0.741880511      158.253521
9.494                0.742020356      157.908543
9.495                 0.74216394      157.563921
9.496                0.742311244      157.219659
9.497                0.742462252      156.875764
9.498                0.742616945      156.532242
9.499                0.742775306      156.189098
9.5                  0.742937315      155.846339
9.501                0.743102954      155.503968
9.502                0.743272204      155.161994
9.503                0.743445046      154.820419
9.504                 0.74362146      154.479251
9.505                0.743801426      154.138495
9.506                0.743984923      153.798156
9.507                0.744171933      153.458239
9.508                0.744362434       153.11875
9.509                0.744556405      152.779694
9.51                 0.744753826      152.441076
9.511                0.744954674      152.102902
9.512                0.745158929      151.765176
9.513                0.745366569      151.427904
9.514                0.745577572       151.09109
9.515                0.745791916       150.75474
9.516                0.746009578      150.418858
9.517                0.746230536      150.083449
9.518                0.746454767      149.748519
9.519                0.746682248      149.414072
9.52                 0.746912957      149.080112
9.521                 0.74714687      148.746645
9.522                0.747383963      148.413674
9.523                0.747624212      148.081205
9.524                0.747867595      147.749242
9.525                0.748114087       147.41779
9.526                0.748363663      147.086852
9.527                0.748616301      146.756434
9.528                0.748871974      146.426539
9.529                 0.74913066      146.097172
9.53                 0.749392332      145.768337
9.531                0.749656967      145.440038
9.532                0.749924538      145.112279
9.533                0.750195022      144.785065
9.534                0.750468394      144.458399
9.535                0.750744626      144.132285
9.536                0.751023695      143.806727
9.537                0.751305575       143.48173
9.538                 0.75159024      143.157296
9.539                0.751877665      142.833429
9.54                 0.752167823      142.510134
9.541                0.752460689      142.187413
9.542                0.752756237       141.86527
9.543                0.753054441       141.54371
9.544                0.753355275      141.222735
9.545                0.753658712      140.902348
9.546                0.753964727      140.582553
9.547                0.754273293      140.263354
9.548                0.754584383      139.944753
9.549                0.754897972      139.626755
9.55                 0.755214033      139.309361
9.551                0.755532539      138.992575
9.552                0.755853464        138.6764
9.553                0.756176782      138.360839
9.554                0.756502465      138.045895
9.555                0.756830488      137.731571
9.556                0.757160823       137.41787
9.557                0.757493445      137.104794
9.558                0.757828325      136.792346
9.559                0.758165439       136.48053
9.56                 0.758504758      136.169346
9.561                0.758846257      135.858799
9.562                0.759189909       135.54889
9.563                0.759535687      135.239623
9.564                0.759883565      134.930998
9.565                0.760233515       134.62302
9.566                0.760585512       134.31569
9.567                0.760939529       134.00901
9.568                0.761295539      133.702983
9.569                0.761653516      133.397611
9.57                 0.762013433      133.092895
9.571                0.762375264      132.788839
9.572                0.762738983      132.485443
9.573                0.763104563      132.182711
9.574                0.763471977      131.880643
9.575                0.763841201      131.579243
9.576                0.764212206       131.27851
9.577                0.764584968      130.978449
9.578                 0.76495946      130.679059
9.579                0.765335657      130.380343
9.58                 0.765713531      130.082303
9.581                0.766093058       129.78494
9.582                0.766474212      129.488255
9.583                0.766856966       129.19225
9.584                0.767241296      128.896927
9.585                0.767627175      128.602287
9.586                0.768014578      128.308331
9.587                 0.76840348      128.015061
9.588                0.768793856      127.722478
9.589                 0.76918568      127.430583
9.59                 0.769578926      127.139378
9.591                0.769973571      126.848863
9.592                0.770369589      126.559039
9.593                0.770766955      126.269908
9.594                0.771165645      125.981471
9.595                0.771565633      125.693729
9.596                0.771966896      125.406682
9.597                0.772369409      125.120331
9.598                0.772773148      124.834679
9.599                0.773178088      124.549724
9.6                  0.773584206      124.265468
9.601                0.773991476      123.981912