! TOUCHSTONE file generated by CST DESIGN STUDIO
! Date and time: Tue Feb  4 17:36:32 2025
! Project name: C:\Work\MatlabApps\UnitCellOptimizationMatlab\CST\unitcell.cst
! Tree item: Tasks\Sweep1\SPara1\S-Parameters
! Header version: 2024
! Port assignment regex: !\s*Touchstone port\s*([0-9]+)\s*=\s*(CST MWS port|CST DES external port|CST DES block port)\s*(.+)\s* \(\"(.*)\"\)(\s*mode\s*([0-9]+))?.*
! Touchstone port assignment:
! Touchstone port 1 = CST DES external port 1 ("")
# GHz S MA R 50
9                    0.960669956     -47.4451533
9.001                0.960598497     -47.5035515
9.002                0.960526825     -47.5620687
9.003                0.960454939     -47.6207052
9.004                0.960382838     -47.6794613
9.005                0.960310523     -47.7383375
9.006                0.960237991     -47.7973341
9.007                0.960165243     -47.8564515
9.008                0.960092278       -47.91569
9.009                0.960019094       -47.97505
9.01                 0.959945691     -48.0345319
9.011                0.959872069      -48.094136
9.012                0.959798226     -48.1538627
9.013                0.959724163     -48.2137124
9.014                0.959649877     -48.2736854
9.015                0.959575369     -48.3337821
9.016                0.959500637     -48.3940029
9.017                0.959425681     -48.4543482
9.018                  0.9593505     -48.5148183
9.019                0.959275093     -48.5754136
9.02                  0.95919946     -48.6361346
9.021                  0.9591236     -48.6969815
9.022                0.959047511     -48.7579547
9.023                0.958971194     -48.8190548
9.024                0.958894647     -48.8802819
9.025                0.958817869     -48.9416366
9.026                0.958740861     -49.0031192
9.027                 0.95866362       -49.06473
9.028                0.958586147     -49.1264696
9.029                 0.95850844     -49.1883383
9.03                 0.958430498     -49.2503364
9.031                0.958352321     -49.3124644
9.032                0.958273908     -49.3747226
9.033                0.958195259     -49.4371116
9.034                0.958116372     -49.4996315
9.035                0.958037246      -49.562283
9.036                0.957957881     -49.6250663
9.037                0.957878275     -49.6879819
9.038                0.957798429     -49.7510302
9.039                0.957718341     -49.8142116
9.04                 0.957638011     -49.8775264
9.041                0.957557436     -49.9409752
9.042                0.957476618     -50.0045583
9.043                0.957395555     -50.0682761
9.044                0.957314245     -50.1321291
9.045                0.957232689     -50.1961176
9.046                0.957150884     -50.2602421
9.047                0.957068832      -50.324503
9.048                 0.95698653     -50.3889007
9.049                0.956903977     -50.4534357
9.05                 0.956821174     -50.5181083
9.051                0.956738118      -50.582919
9.052                 0.95665481     -50.6478683
9.053                0.956571248     -50.7129565
9.054                0.956487431      -50.778184
9.055                0.956403359     -50.8435514
9.056                 0.95631903      -50.909059
9.057                0.956234444     -50.9747073
9.058                  0.9561496     -51.0404968
9.059                0.956064496     -51.1064277
9.06                 0.955979133     -51.1725007
9.061                0.955893509     -51.2387161
9.062                0.955807623     -51.3050744
9.063                0.955721474      -51.371576
9.064                0.955635062     -51.4382214
9.065                0.955548385      -51.505011
9.066                0.955461443     -51.5719453
9.067                0.955374234     -51.6390247
9.068                0.955286758     -51.7062496
9.069                0.955199014     -51.7736206
9.07                 0.955111001     -51.8411381
9.071                0.955022718     -51.9088025
9.072                0.954934164     -51.9766144
9.073                0.954845338      -52.044574
9.074                0.954756238     -52.1126821
9.075                0.954666866     -52.1809389
9.076                0.954577218      -52.249345
9.077                0.954487294     -52.3179008
9.078                0.954397094     -52.3866068
9.079                0.954306616     -52.4554634
9.08                  0.95421586     -52.5244713
9.081                0.954124824     -52.5936307
9.082                0.954033507     -52.6629423
9.083                0.953941909     -52.7324064
9.084                0.953850029     -52.8020236
9.085                0.953757864     -52.8717943
9.086                0.953665416      -52.941719
9.087                0.953572682     -53.0117983
9.088                0.953479661     -53.0820326
9.089                0.953386353     -53.1524223
9.09                 0.953292757      -53.222968
9.091                0.953198871     -53.2936702
9.092                0.953104695     -53.3645294
9.093                0.953010227     -53.4355461
9.094                0.952915467     -53.5067207
9.095                0.952820413     -53.5780538
9.096                0.952725065     -53.6495458
9.097                0.952629421     -53.7211974
9.098                0.952533481     -53.7930089
9.099                0.952437243     -53.8649809
9.1                  0.952340706     -53.9371139
9.101                 0.95224387     -54.0094084
9.102                0.952146733      -54.081865
9.103                0.952049295     -54.1544841
9.104                0.951951553     -54.2272663
9.105                0.951853508      -54.300212
9.106                0.951755158     -54.3733219
9.107                0.951656502     -54.4465963
9.108                0.951557539      -54.520036
9.109                0.951458268     -54.5936413
9.11                 0.951358688     -54.6674128
9.111                0.951258797     -54.7413511
9.112                0.951158596     -54.8154566
9.113                0.951058082       -54.88973
9.114                0.950957254     -54.9641717
9.115                0.950856112     -55.0387823
9.116                0.950754655     -55.1135623
9.117                 0.95065288     -55.1885123
9.118                0.950550788     -55.2636329
9.119                0.950448377     -55.3389245
9.12                 0.950345646     -55.4143877
9.121                0.950242594     -55.4900231
9.122                 0.95013922     -55.5658312
9.123                0.950035522     -55.6418126
9.124                  0.9499315     -55.7179679
9.125                0.949827153     -55.7942975
9.126                0.949722478     -55.8708021
9.127                0.949617476     -55.9474822
9.128                0.949512145     -56.0243384
9.129                0.949406484     -56.1013713
9.13                 0.949300491     -56.1785814
9.131                0.949194167     -56.2559693
9.132                0.949087508     -56.3335356
9.133                0.948980515     -56.4112809
9.134                0.948873187     -56.4892057
9.135                0.948765521     -56.5673106
9.136                0.948657517     -56.6455962
9.137                0.948549174     -56.7240631
9.138                 0.94844049     -56.8027119
9.139                0.948331465     -56.8815431
9.14                 0.948222097     -56.9605574
9.141                0.948112385     -57.0397553
9.142                0.948002328     -57.1191375
9.143                0.947891924     -57.1987046
9.144                0.947781173      -57.278457
9.145                0.947670073     -57.3583956
9.146                0.947558624     -57.4385208
9.147                0.947446823     -57.5188332
9.148                 0.94733467     -57.5993336
9.149                0.947222163     -57.6800224
9.15                 0.947109302     -57.7609003
9.151                0.946996084      -57.841968
9.152                 0.94688251      -57.923226
9.153                0.946768577     -58.0046749
9.154                0.946654284     -58.0863154
9.155                0.946539631     -58.1681482
9.156                0.946424615     -58.2501738
9.157                0.946309237     -58.3323928
9.158                0.946193493      -58.414806
9.159                0.946077384     -58.4974139
9.16                 0.945960908     -58.5802172
9.161                0.945844064     -58.6632164
9.162                 0.94572685     -58.7464124
9.163                0.945609265     -58.8298056
9.164                0.945491309     -58.9133969
9.165                0.945372979     -58.9971867
9.166                0.945254274     -59.0811757
9.167                0.945135194     -59.1653647
9.168                0.945015736     -59.2497542
9.169                  0.9448959      -59.334345
9.17                 0.944775685     -59.4191377
9.171                0.944655088     -59.5041329
9.172                 0.94453411     -59.5893313
9.173                0.944412747     -59.6747336
9.174                   0.944291     -59.7603405
9.175                0.944168867     -59.8461526
9.176                0.944046347     -59.9321706
9.177                0.943923438     -60.0183952
9.178                0.943800138     -60.1048271
9.179                0.943676448     -60.1914669
9.18                 0.943552365     -60.2783154
9.181                0.943427887     -60.3653732
9.182                0.943303015      -60.452641
9.183                0.943177746     -60.5401196
9.184                0.943052079     -60.6278096
9.185                0.942926013     -60.7157117
9.186                0.942799546     -60.8038265
9.187                0.942672678      -60.892155
9.188                0.942545406     -60.9806976
9.189                 0.94241773     -61.0694552
9.19                 0.942289647     -61.1584284
9.191                0.942161158      -61.247618
9.192                0.942032259     -61.3370247
9.193                0.941902951     -61.4266492
9.194                0.941773232     -61.5164922
9.195                0.941643099     -61.6065545
9.196                0.941512553     -61.6968367
9.197                0.941381592     -61.7873397
9.198                0.941250213     -61.8780641
9.199                0.941118416     -61.9690107
9.2                    0.9409862     -62.0601802
9.201                0.940853563     -62.1515733
9.202                0.940720504     -62.2431909
9.203                0.940587021     -62.3350336
9.204                0.940453113     -62.4271022
9.205                0.940318778     -62.5193975
9.206                0.940184016     -62.6119202
9.207                0.940048824      -62.704671
9.208                0.939913202     -62.7976508
9.209                0.939777148     -62.8908602
9.21                  0.93964066     -62.9843002
9.211                0.939503738     -63.0779713
9.212                0.939366379     -63.1718744
9.213                0.939228583     -63.2660103
9.214                0.939090347     -63.3603798
9.215                0.938951671     -63.4549836
9.216                0.938812554     -63.5498225
9.217                0.938672993     -63.6448973
9.218                0.938532987     -63.7402087
9.219                0.938392535     -63.8357577
9.22                 0.938251635     -63.9315449
9.221                0.938110287     -64.0275712
9.222                0.937968488     -64.1238373
9.223                0.937826237     -64.2203441
9.224                0.937683533     -64.3170924
9.225                0.937540374      -64.414083
9.226                0.937396759     -64.5113167
9.227                0.937252687     -64.6087942
9.228                0.937108155     -64.7065165
9.229                0.936963163     -64.8044844
9.23                 0.936817708     -64.9026986
9.231                0.936671791       -65.00116
9.232                0.936525408     -65.0998694
9.233                 0.93637856     -65.1988277
9.234                0.936231243     -65.2980356
9.235                0.936083457     -65.3974941
9.236                0.935935201     -65.4972039
9.237                0.935786472      -65.597166
9.238                 0.93563727     -65.6973811
9.239                0.935487593     -65.7978501
9.24                 0.935337439     -65.8985739
9.241                0.935186807     -65.9995532
9.242                0.935035696     -66.1007891
9.243                0.934884104     -66.2022823
9.244                0.934732029     -66.3040336
9.245                0.934579471      -66.406044
9.246                0.934426427     -66.5083144
9.247                0.934272896     -66.6108456
9.248                0.934118877     -66.7136384
9.249                0.933964368     -66.8166938
9.25                 0.933809368     -66.9200126
9.251                0.933653876     -67.0235958
9.252                0.933497889     -67.1274442
9.253                0.933341406     -67.2315586
9.254                0.933184426     -67.3359401
9.255                0.933026948     -67.4405895
9.256                 0.93286897     -67.5455077
9.257                0.932710489     -67.6506956
9.258                0.932551506     -67.7561541
9.259                0.932392018     -67.8618841
9.26                 0.932232025     -67.9678865
9.261                0.932071523     -68.0741623
9.262                0.931910513     -68.1807123
9.263                0.931748992     -68.2875376
9.264                0.931586959     -68.3946389
9.265                0.931424413     -68.5020173
9.266                0.931261351     -68.6096737
9.267                0.931097773      -68.717609
9.268                0.930933678     -68.8258241
9.269                0.930769063       -68.93432
9.27                 0.930603927     -69.0430976
9.271                0.930438268     -69.1521579
9.272                0.930272086     -69.2615019
9.273                0.930105379     -69.3711304
9.274                0.929938145     -69.4810445
9.275                0.929770382      -69.591245
9.276                 0.92960209     -69.7017331
9.277                0.929433266     -69.8125095
9.278                 0.92926391     -69.9235754
9.279                0.929094019     -70.0349316
9.28                 0.928923593     -70.1465791
9.281                 0.92875263      -70.258519
9.282                0.928581128     -70.3707522
9.283                0.928409087     -70.4832797
9.284                0.928236503     -70.5961024
9.285                0.928063377     -70.7092215
9.286                0.927889706     -70.8226377
9.287                0.927715489     -70.9363523
9.288                0.927540725     -71.0503661
9.289                0.927365412     -71.1646802
9.29                 0.927189549     -71.2792955
9.291                0.927013134     -71.3942132
9.292                0.926836166     -71.5094341
9.293                0.926658643     -71.6249594
9.294                0.926480564     -71.7407899
9.295                0.926301928     -71.8569269
9.296                0.926122732     -71.9733712
9.297                0.925942977      -72.090124
9.298                0.925762659     -72.2071862
9.299                0.925581778     -72.3245589
9.3                  0.925400333     -72.4422431
9.301                0.925218321     -72.5602399
9.302                0.925035742     -72.6785503
9.303                0.924852594     -72.7971753
9.304                0.924668876     -72.9161161
9.305                0.924484586     -73.0353736
9.306                0.924299723      -73.154949
9.307                0.924114285     -73.2748432
9.308                0.923928272     -73.3950574
9.309                0.923741681     -73.5155927
9.31                 0.923554511       -73.63645
9.311                0.923366762     -73.7576305
9.312                0.923178431     -73.8791352
9.313                0.922989517     -74.0009653
9.314                0.922800019     -74.1231218
9.315                0.922609935     -74.2456058
9.316                0.922419265     -74.3684183
9.317                0.922228006     -74.4915606
9.318                0.922036158     -74.6150336
9.319                0.921843719     -74.7388385
9.32                 0.921650687     -74.8629764
9.321                0.921457062     -74.9874484
9.322                0.921262843     -75.1122556
9.323                0.921068027     -75.2373991
9.324                0.920872614       -75.36288
9.325                0.920676602     -75.4886995
9.326                 0.92047999     -75.6148586
9.327                0.920282776     -75.7413586
9.328                 0.92008496     -75.8682004
9.329                 0.91988654     -75.9953853
9.33                 0.919687516     -76.1229144
9.331                0.919487884     -76.2507888
9.332                0.919287646     -76.3790097
9.333                0.919086798     -76.5075782
9.334                0.918885341     -76.6364954
9.335                0.918683272     -76.7657625
9.336                0.918480591     -76.8953807
9.337                0.918277296     -77.0253511
9.338                0.918073386     -77.1556749
9.339                0.917868861     -77.2863532
9.34                 0.917663718     -77.4173873
9.341                0.917457957     -77.5487781
9.342                0.917251576     -77.6805271
9.343                0.917044575     -77.8126352
9.344                0.916836953     -77.9451037
9.345                0.916628707     -78.0779338
9.346                0.916419838     -78.2111266
9.347                0.916210343     -78.3446834
9.348                0.916000223     -78.4786053
9.349                0.915789475     -78.6128935
9.35                   0.9155781     -78.7475493
9.351                0.915366095     -78.8825737
9.352                0.915153459      -79.017968
9.353                0.914940193     -79.1537335
9.354                0.914726294     -79.2898713
9.355                0.914511763     -79.4263826
9.356                0.914296596     -79.5632686
9.357                0.914080795     -79.7005306
9.358                0.913864358     -79.8381697
9.359                0.913647283     -79.9761873
9.36                 0.913429571     -80.1145844
9.361                 0.91321122     -80.2533624
9.362                0.912992229     -80.3925225
9.363                0.912772597     -80.5320658
9.364                0.912552324     -80.6719937
9.365                0.912331408     -80.8123073
9.366                 0.91210985      -80.953008
9.367                0.911887647     -81.0940969
9.368                  0.9116648     -81.2355753
9.369                0.911441307     -81.3774444
9.37                 0.911217168     -81.5197055
9.371                0.910992382     -81.6623598
9.372                0.910766948     -81.8054086
9.373                0.910540865     -81.9488532
9.374                0.910314134     -82.0926947
9.375                0.910086753     -82.2369345
9.376                0.909858721     -82.3815739
9.377                0.909630038      -82.526614
9.378                0.909400704     -82.6720562
9.379                0.909170717     -82.8179018
9.38                 0.908940077     -82.9641519
9.381                0.908708784     -83.1108079
9.382                0.908476837     -83.2578711
9.383                0.908244236     -83.4053427
9.384                 0.90801098      -83.553224
9.385                0.907777068     -83.7015164
9.386                0.907542501      -83.850221
9.387                0.907307277     -83.9993392
9.388                0.907071396     -84.1488723
9.389                0.906834859     -84.2988215
9.39                 0.906597664     -84.4491881
9.391                0.906359812     -84.5999736
9.392                0.906121302      -84.751179
9.393                0.905882133     -84.9028058
9.394                0.905642306     -85.0548553
9.395                 0.90540182     -85.2073287
9.396                0.905160675     -85.3602274
9.397                0.904918871     -85.5135526
9.398                0.904676408     -85.6673057
9.399                0.904433285      -85.821488
9.4                  0.904189503     -85.9761008
9.401                0.903945061     -86.1311453
9.402                 0.90369996      -86.286623
9.403                0.903454199     -86.4425352
9.404                0.903207779     -86.5988831
9.405                0.902960699      -86.755668
9.406                0.902712959     -86.9128914
9.407                 0.90246456     -87.0705545
9.408                0.902215502     -87.2286586
9.409                0.901965785     -87.3872051
9.41                 0.901715409     -87.5461953
9.411                0.901464374     -87.7056304
9.412                0.901212681      -87.865512
9.413                 0.90096033     -88.0258412
9.414                0.900707321     -88.1866194
9.415                0.900453655      -88.347848
9.416                0.900199331     -88.5095282
9.417                0.899944351     -88.6716614
9.418                0.899688715     -88.8342489
9.419                0.899432423     -88.9972921
9.42                 0.899175476     -89.1607924
9.421                0.898917875     -89.3247509
9.422                0.898659619     -89.4891691
9.423                0.898400711     -89.6540483
9.424                0.898141149     -89.8193899
9.425                0.897880936     -89.9851951
9.426                0.897620071     -90.1514654
9.427                0.897358556      -90.318202
9.428                0.897096391     -90.4854063
9.429                0.896833578     -90.6530796
9.43                 0.896570117     -90.8212233
9.431                0.896306009     -90.9898387
9.432                0.896041255     -91.1589272
9.433                0.895775856       -91.32849
9.434                0.895509813     -91.4985286
9.435                0.895243128     -91.6690442
9.436                0.894975801     -91.8400382
9.437                0.894707834     -92.0115119
9.438                0.894439228     -92.1834667
9.439                0.894169984     -92.3559038
9.44                 0.893900103     -92.5288247
9.441                0.893629587     -92.7022307
9.442                0.893358438     -92.8761231
9.443                0.893086656     -93.0505032
9.444                0.892814244     -93.2253724
9.445                0.892541202     -93.4007319
9.446                0.892267533     -93.5765832
9.447                0.891993238     -93.7529275
9.448                0.891718318     -93.9297662
9.449                0.891442777     -94.1071006
9.45                 0.891166614     -94.2849321
9.451                0.890889833     -94.4632619
9.452                0.890612435     -94.6420913
9.453                0.890334421     -94.8214217
9.454                0.890055795     -95.0012545
9.455                0.889776558     -95.1815908
9.456                0.889496712     -95.3624321
9.457                 0.88921626     -95.5437796
9.458                0.888935203     -95.7256347
9.459                0.888653544     -95.9079986
9.46                 0.888371285     -96.0908727
9.461                0.888088428     -96.2742583
9.462                0.887804977     -96.4581566
9.463                0.887520933     -96.6425689
9.464                0.887236299     -96.8274967
9.465                0.886951077      -97.012941
9.466                0.886665271     -97.1989033
9.467                0.886378883     -97.3853849
9.468                0.886091916     -97.5723869
9.469                0.885804372     -97.7599107
9.47                 0.885516255     -97.9479575
9.471                0.885227568     -98.1365287
9.472                0.884938313     -98.3256254
9.473                0.884648493      -98.515249
9.474                0.884358113     -98.7054007
9.475                0.884067174     -98.8960818
9.476                0.883775681     -99.0872935
9.477                0.883483636     -99.2790371
9.478                0.883191043     -99.4713138
9.479                0.882897906     -99.6641249
9.48                 0.882604228     -99.8574715
9.481                0.882310012     -100.051355
9.482                0.882015263     -100.245776
9.483                0.881719984     -100.440737
9.484                0.881424178     -100.636238
9.485                0.881127851     -100.832281
9.486                0.880831005     -101.028867
9.487                0.880533644     -101.225997
9.488                0.880235774     -101.423672
9.489                0.879937397     -101.621894
9.49                 0.879638519     -101.820663
9.491                0.879339143     -102.019982
9.492                0.879039274      -102.21985
9.493                0.878738916     -102.420269
9.494                0.878438074     -102.621241
9.495                0.878136752     -102.822766
9.496                0.877834956     -103.024846
9.497                0.877532689     -103.227481
9.498                0.877229957     -103.430673
9.499                0.876926764     -103.634424
9.5                  0.876623117     -103.838733
9.501                0.876319018     -104.043603
9.502                0.876014475     -104.249034
9.503                0.875709491     -104.455028
9.504                0.875404072     -104.661585
9.505                0.875098224     -104.868706
9.506                0.874791953     -105.076393
9.507                0.874485262     -105.284647
9.508                0.874178159     -105.493469
9.509                0.873870649      -105.70286
9.51                 0.873562738      -105.91282
9.511                0.873254431     -106.123351
9.512                0.872945734     -106.334454
9.513                0.872636654      -106.54613
9.514                0.872327197      -106.75838
9.515                0.872017368     -106.971205
9.516                0.871707175     -107.184605
9.517                0.871396622     -107.398583
9.518                0.871085718     -107.613138
9.519                0.870774469     -107.828272
9.52                  0.87046288     -108.043986
9.521                 0.87015096      -108.26028
9.522                0.869838714     -108.477155
9.523                0.869526149     -108.694613
9.524                0.869213273     -108.912655
9.525                0.868900093      -109.13128
9.526                0.868586615     -109.350491
9.527                0.868272847     -109.570287
9.528                0.867958797      -109.79067
9.529                0.867644471     -110.011641
9.53                 0.867329878       -110.2332
9.531                0.867015025     -110.455348
9.532                0.866699919     -110.678087
9.533                0.866384569     -110.901416
9.534                0.866068983     -111.125336
9.535                0.865753167     -111.349849
9.536                0.865437131     -111.574955
9.537                0.865120883     -111.800655
9.538                0.864804431     -112.026949
9.539                0.864487782     -112.253838
9.54                 0.864170947     -112.481323
9.541                0.863853933     -112.709405
9.542                0.863536749     -112.938084
9.543                0.863219404     -113.167361
9.544                0.862901906     -113.397236
9.545                0.862584265      -113.62771
9.546                0.862266489     -113.858784
9.547                0.861948588     -114.090458
9.548                0.861630571     -114.322732
9.549                0.861312448     -114.555609
9.55                 0.860994227     -114.789087
9.551                0.860675918     -115.023167
9.552                0.860357531      -115.25785
9.553                0.860039076     -115.493137
9.554                0.859720562     -115.729027
9.555                   0.859402     -115.965521
9.556                0.859083399     -116.202621
9.557                 0.85876477     -116.440325
9.558                0.858446122     -116.678634
9.559                0.858127467      -116.91755
9.56                 0.857808814     -117.157072
9.561                0.857490174       -117.3972
9.562                0.857171557     -117.637935
9.563                0.856852975     -117.879277
9.564                0.856534438     -118.121226
9.565                0.856215957     -118.363783
9.566                0.855897544     -118.606948
9.567                0.855579208     -118.850721
9.568                0.855260962     -119.095102
9.569                0.854942817     -119.340092
9.57                 0.854624784      -119.58569
9.571                0.854306874     -119.831897
9.572                  0.8539891     -120.078712
9.573                0.853671473     -120.326137
9.574                0.853354004      -120.57417
9.575                0.853036706     -120.822813
9.576                0.852719591     -121.072064
9.577                0.852402671     -121.321925
9.578                0.852085957     -121.572394
9.579                0.851769463     -121.823472
9.58                 0.851453201     -122.075159
9.581                0.851137182     -122.327455
9.582                 0.85082142      -122.58036
9.583                0.850505928     -122.833873
9.584                0.850190718     -123.087994
9.585                0.849875803     -123.342723
9.586                0.849561195     -123.598061
9.587                0.849246909     -123.854006
9.588                0.848932957     -124.110558
9.589                0.848619352     -124.367717
9.59                 0.848306108     -124.625483
9.591                0.847993238     -124.883855
9.592                0.847680756     -125.142834
9.593                0.847368675     -125.402418
9.594                0.847057009     -125.662607
9.595                0.846745772     -125.923401
9.596                0.846434977     -126.184799
9.597                0.846124639     -126.446801
9.598                0.845814772     -126.709406
9.599                0.845505389     -126.972614
9.6                  0.845196505     -127.236423
9.601                0.844888135     -127.500834