! TOUCHSTONE file generated by CST DESIGN STUDIO
! Date and time: Tue Feb  4 18:44:03 2025
! Project name: C:\Work\MatlabApps\UnitCellOptimizationMatlab\CST\unitcell.cst
! Tree item: Tasks\Sweep1\SPara1\S-Parameters
! Header version: 2024
! Port assignment regex: !\s*Touchstone port\s*([0-9]+)\s*=\s*(CST MWS port|CST DES external port|CST DES block port)\s*(.+)\s* \(\"(.*)\"\)(\s*mode\s*([0-9]+))?.*
! Touchstone port assignment:
! Touchstone port 1 = CST DES external port 1 ("")
# GHz S MA R 50
9                    0.968493391     -39.0780063
9.001                0.968447679     -39.1228469
9.002                0.968401827     -39.1677676
9.003                0.968355834     -39.2127686
9.004                0.968309699     -39.2578501
9.005                0.968263423     -39.3030125
9.006                0.968217005     -39.3482559
9.007                0.968170444     -39.3935804
9.008                 0.96812374     -39.4389865
9.009                0.968076893     -39.4844742
9.01                 0.968029902     -39.5300438
9.011                0.967982766     -39.5756956
9.012                0.967935485     -39.6214297
9.013                0.967888059     -39.6672464
9.014                0.967840487      -39.713146
9.015                0.967792769     -39.7591286
9.016                0.967744904     -39.8051945
9.017                0.967696891     -39.8513439
9.018                0.967648731      -39.897577
9.019                0.967600423     -39.9438942
9.02                 0.967551967     -39.9902956
9.021                0.967503361     -40.0367814
9.022                0.967454605     -40.0833519
9.023                  0.9674057     -40.1300074
9.024                0.967356644      -40.176748
9.025                0.967307437     -40.2235741
9.026                0.967258078     -40.2704858
9.027                0.967208568     -40.3174834
9.028                0.967158904     -40.3645671
9.029                0.967109088     -40.4117372
9.03                 0.967059119      -40.458994
9.031                0.967008995     -40.5063376
9.032                0.966958717     -40.5537683
9.033                0.966908284     -40.6012863
9.034                0.966857695      -40.648892
9.035                0.966806951     -40.6965855
9.036                 0.96675605     -40.7443672
9.037                0.966704992     -40.7922371
9.038                0.966653777     -40.8401957
9.039                0.966602403     -40.8882432
9.04                 0.966550871     -40.9363797
9.041                 0.96649918     -40.9846056
9.042                0.966447329     -41.0329211
9.043                0.966395319     -41.0813265
9.044                0.966343147      -41.129822
9.045                0.966290815     -41.1784078
9.046                0.966238321     -41.2270844
9.047                0.966185665     -41.2758518
9.048                0.966132846     -41.3247103
9.049                0.966079864     -41.3736603
9.05                 0.966026718      -41.422702
9.051                0.965973408     -41.4718356
9.052                0.965919933     -41.5210614
9.053                0.965866292     -41.5703797
9.054                0.965812486     -41.6197907
9.055                0.965758513     -41.6692947
9.056                0.965704373     -41.7188919
9.057                0.965650066     -41.7685827
9.058                 0.96559559     -41.8183673
9.059                0.965540946      -41.868246
9.06                 0.965486132      -41.918219
9.061                0.965431149     -41.9682867
9.062                0.965375996     -42.0184492
9.063                0.965320671     -42.0687069
9.064                0.965265175       -42.11906
9.065                0.965209507     -42.1695088
9.066                0.965153667     -42.2200536
9.067                0.965097653     -42.2706947
9.068                0.965041465     -42.3214323
9.069                0.964985103     -42.3722668
9.07                 0.964928567     -42.4231984
9.071                0.964871854     -42.4742273
9.072                0.964814966     -42.5253539
9.073                0.964757901     -42.5765785
9.074                0.964700659     -42.6279013
9.075                0.964643239     -42.6793226
9.076                0.964585641     -42.7308427
9.077                0.964527863      -42.782462
9.078                0.964469906     -42.8341806
9.079                0.964411769     -42.8859989
9.08                 0.964353451     -42.9379172
9.081                0.964294951     -42.9899357
9.082                 0.96423627     -43.0420547
9.083                0.964177406     -43.0942747
9.084                0.964118358     -43.1465957
9.085                0.964059127     -43.1990182
9.086                0.963999711     -43.2515425
9.087                 0.96394011     -43.3041687
9.088                0.963880324     -43.3568973
9.089                0.963820351     -43.4097286
9.09                 0.963760191     -43.4626627
9.091                0.963699844     -43.5157001
9.092                0.963639308     -43.5688411
9.093                0.963578584     -43.6220859
9.094                 0.96351767     -43.6754348
9.095                0.963456566     -43.7288882
9.096                0.963395271     -43.7824464
9.097                0.963333785     -43.8361096
9.098                0.963272107     -43.8898783
9.099                0.963210236     -43.9437526
9.1                  0.963148171     -43.9977329
9.101                0.963085913     -44.0518196
9.102                 0.96302346     -44.1060129
9.103                0.962960811     -44.1603132
9.104                0.962897967     -44.2147207
9.105                0.962834926     -44.2692358
9.106                0.962771688     -44.3238589
9.107                0.962708252     -44.3785901
9.108                0.962644617     -44.4334299
9.109                0.962580782     -44.4883786
9.11                 0.962516748     -44.5434365
9.111                0.962452513      -44.598604
9.112                0.962388077     -44.6538813
9.113                0.962323438     -44.7092687
9.114                0.962258597     -44.7647667
9.115                0.962193553     -44.8203755
9.116                0.962128304     -44.8760955
9.117                0.962062851      -44.931927
9.118                0.961997192     -44.9878703
9.119                0.961931326     -45.0439258
9.12                 0.961865254     -45.1000938
9.121                0.961798974     -45.1563747
9.122                0.961732486     -45.2127687
9.123                0.961665789     -45.2692763
9.124                0.961598882     -45.3258978
9.125                0.961531764     -45.3826334
9.126                0.961464436     -45.4394836
9.127                0.961396895     -45.4964487
9.128                0.961329142     -45.5535291
9.129                0.961261175      -45.610725
9.13                 0.961192994     -45.6680369
9.131                0.961124599     -45.7254651
9.132                0.961055987       -45.78301
9.133                 0.96098716     -45.8406718
9.134                0.960918115      -45.898451
9.135                0.960848852     -45.9563478
9.136                0.960779371     -46.0143628
9.137                0.960709671     -46.0724962
9.138                 0.96063975     -46.1307483
9.139                0.960569609     -46.1891196
9.14                 0.960499246     -46.2476104
9.141                 0.96042866     -46.3062211
9.142                0.960357852      -46.364952
9.143                0.960286819     -46.4238035
9.144                0.960215562     -46.4827759
9.145                 0.96014408     -46.5418697
9.146                0.960072371     -46.6010852
9.147                0.960000435     -46.6604228
9.148                0.959928271     -46.7198828
9.149                0.959855879     -46.7794657
9.15                 0.959783257     -46.8391718
9.151                0.959710405     -46.8990014
9.152                0.959637322      -46.958955
9.153                0.959564007     -47.0190329
9.154                 0.95949046     -47.0792355
9.155                0.959416679     -47.1395633
9.156                0.959342665     -47.2000165
9.157                0.959268415     -47.2605956
9.158                0.959193929     -47.3213009
9.159                0.959119206     -47.3821329
9.16                 0.959044246     -47.4430919
9.161                0.958969048     -47.5041784
9.162                0.958893611     -47.5653926
9.163                0.958817933     -47.6267351
9.164                0.958742015     -47.6882062
9.165                0.958665855     -47.7498063
9.166                0.958589453     -47.8115358
9.167                0.958512807     -47.8733951
9.168                0.958435917     -47.9353846
9.169                0.958358782     -47.9975048
9.17                 0.958281401     -48.0597559
9.171                0.958203773     -48.1221385
9.172                0.958125898     -48.1846529
9.173                0.958047774     -48.2472995
9.174                0.957969401     -48.3100788
9.175                0.957890778     -48.3729911
9.176                0.957811903      -48.436037
9.177                0.957732777     -48.4992167
9.178                0.957653397     -48.5625307
9.179                0.957573764     -48.6259795
9.18                 0.957493877     -48.6895634
9.181                0.957413733     -48.7532828
9.182                0.957333334     -48.8171383
9.183                0.957252677     -48.8811302
9.184                0.957171761     -48.9452589
9.185                0.957090587     -49.0095249
9.186                0.957009152     -49.0739287
9.187                0.956927457     -49.1384705
9.188                  0.9568455     -49.2031509
9.189                0.956763279     -49.2679703
9.19                 0.956680796     -49.3329292
9.191                0.956598047     -49.3980279
9.192                0.956515033      -49.463267
9.193                0.956431752     -49.5286468
9.194                0.956348204     -49.5941678
9.195                0.956264388     -49.6598304
9.196                0.956180302     -49.7256352
9.197                0.956095946     -49.7915825
9.198                0.956011318     -49.8576728
9.199                0.955926419     -49.9239065
9.2                  0.955841246     -49.9902841
9.201                0.955755799     -50.0568061
9.202                0.955670077     -50.1234728
9.203                0.955584079     -50.1902849
9.204                0.955497804     -50.2572426
9.205                0.955411251     -50.3243466
9.206                0.955324419     -50.3915972
9.207                0.955237307     -50.4589949
9.208                0.955149914     -50.5265402
9.209                0.955062239     -50.5942335
9.21                 0.954974281     -50.6620754
9.211                 0.95488604     -50.7300662
9.212                0.954797513     -50.7982066
9.213                  0.9547087     -50.8664968
9.214                  0.9546196     -50.9349375
9.215                0.954530213     -51.0035291
9.216                0.954440536     -51.0722721
9.217                0.954350569      -51.141167
9.218                0.954260312     -51.2102142
9.219                0.954169762     -51.2794142
9.22                 0.954078919     -51.3487676
9.221                0.953987782     -51.4182748
9.222                 0.95389635     -51.4879362
9.223                0.953804621     -51.5577525
9.224                0.953712595     -51.6277241
9.225                0.953620271     -51.6978515
9.226                0.953527648     -51.7681352
9.227                0.953434724     -51.8385757
9.228                0.953341498     -51.9091736
9.229                 0.95324797     -51.9799292
9.23                 0.953154139     -52.0508431
9.231                0.953060002     -52.1219159
9.232                 0.95296556      -52.193148
9.233                0.952870811     -52.2645399
9.234                0.952775754     -52.3360923
9.235                0.952680388     -52.4078055
9.236                0.952584712     -52.4796801
9.237                0.952488724     -52.5517166
9.238                0.952392424     -52.6239156
9.239                0.952295811     -52.6962776
9.24                 0.952198883     -52.7688031
9.241                0.952101639     -52.8414926
9.242                0.952004079     -52.9143467
9.243                0.951906201     -52.9873658
9.244                0.951808003     -53.0605506
9.245                0.951709486     -53.1339016
9.246                0.951610647     -53.2074193
9.247                0.951511486     -53.2811042
9.248                0.951412001      -53.354957
9.249                0.951312191      -53.428978
9.25                 0.951212056      -53.503168
9.251                0.951111593     -53.5775274
9.252                0.951010802     -53.6520568
9.253                0.950909682     -53.7267567
9.254                0.950808232     -53.8016278
9.255                0.950706449     -53.8766705
9.256                0.950604334     -53.9518854
9.257                0.950501885     -54.0272731
9.258                  0.9503991     -54.1028342
9.259                 0.95029598     -54.1785692
9.26                 0.950192521     -54.2544786
9.261                0.950088724     -54.3305631
9.262                0.949984587     -54.4068233
9.263                0.949880108     -54.4832596
9.264                0.949775287     -54.5598728
9.265                0.949670123     -54.6366633
9.266                0.949564613     -54.7136317
9.267                0.949458758     -54.7907787
9.268                0.949352555     -54.8681048
9.269                0.949246004     -54.9456105
9.27                 0.949139103     -55.0232966
9.271                0.949031852     -55.1011636
9.272                0.948924248     -55.1792121
9.273                 0.94881629     -55.2574426
9.274                0.948707978     -55.3358559
9.275                 0.94859931     -55.4144524
9.276                0.948490285     -55.4932328
9.277                0.948380901     -55.5721978
9.278                0.948271158     -55.6513478
9.279                0.948161053     -55.7306835
9.28                 0.948050587     -55.8102056
9.281                0.947939756     -55.8899147
9.282                0.947828561     -55.9698113
9.283                   0.947717     -56.0498961
9.284                0.947605072     -56.1301697
9.285                0.947492775     -56.2106328
9.286                0.947380108     -56.2912859
9.287                0.947267069     -56.3721297
9.288                0.947153658     -56.4531649
9.289                0.947039873     -56.5343921
9.29                 0.946925713     -56.6158118
9.291                0.946811177     -56.6974248
9.292                0.946696263     -56.7792317
9.293                0.946580969     -56.8612331
9.294                0.946465295     -56.9434297
9.295                0.946349239     -57.0258222
9.296                  0.9462328     -57.1084111
9.297                0.946115977     -57.1911972
9.298                0.945998768     -57.2741811
9.299                0.945881171     -57.3573635
9.3                  0.945763186     -57.4407449
9.301                0.945644812     -57.5243262
9.302                0.945526045     -57.6081079
9.303                0.945406887     -57.6920908
9.304                0.945287334     -57.7762755
9.305                0.945167386     -57.8606626
9.306                0.945047041     -57.9452529
9.307                0.944926298      -58.030047
9.308                0.944805156     -58.1150456
9.309                0.944683612     -58.2002495
9.31                 0.944561667     -58.2856592
9.311                0.944439317     -58.3712756
9.312                0.944316563     -58.4570992
9.313                0.944193402     -58.5431308
9.314                0.944069833      -58.629371
9.315                0.943945855     -58.7158207
9.316                0.943821466     -58.8024804
9.317                0.943696665     -58.8893509
9.318                0.943571451     -58.9764329
9.319                0.943445821     -59.0637271
9.32                 0.943319775     -59.1512342
9.321                0.943193311      -59.238955
9.322                0.943066428     -59.3268901
9.323                0.942939124     -59.4150403
9.324                0.942811398     -59.5034064
9.325                0.942683248     -59.5919889
9.326                0.942554673     -59.6807888
9.327                0.942425672     -59.7698066
9.328                0.942296242     -59.8590432
9.329                0.942166383     -59.9484993
9.33                 0.942036093     -60.0381756
9.331                0.941905371     -60.1280728
9.332                0.941774215     -60.2181918
9.333                0.941642623     -60.3085332
9.334                0.941510594     -60.3990979
9.335                0.941378127     -60.4898866
9.336                 0.94124522        -60.5809
9.337                0.941111872     -60.6721388
9.338                0.940978081      -60.763604
9.339                0.940843845     -60.8552962
9.34                 0.940709164     -60.9472162
9.341                0.940574035     -61.0393647
9.342                0.940438457     -61.1317426
9.343                0.940302429     -61.2243507
9.344                0.940165949     -61.3171897
9.345                0.940029016     -61.4102603
9.346                0.939891627     -61.5035635
9.347                0.939753782     -61.5970999
9.348                0.939615479     -61.6908705
9.349                0.939476716     -61.7848759
9.35                 0.939337492     -61.8791169
9.351                0.939197806     -61.9735945
9.352                0.939057655     -62.0683093
9.353                0.938917038     -62.1632622
9.354                0.938775954      -62.258454
9.355                0.938634402     -62.3538855
9.356                0.938492378     -62.4495576
9.357                0.938349883      -62.545471
9.358                0.938206914     -62.6416266
9.359                 0.93806347     -62.7380252
9.36                 0.937919549     -62.8346677
9.361                 0.93777515     -62.9315548
9.362                0.937630271     -63.0286874
9.363                0.937484911     -63.1260664
9.364                0.937339067     -63.2236925
9.365                0.937192739     -63.3215667
9.366                0.937045925     -63.4196898
9.367                0.936898622     -63.5180626
9.368                0.936750831      -63.616686
9.369                0.936602548     -63.7155609
9.37                 0.936453773     -63.8146881
9.371                0.936304503     -63.9140684
9.372                0.936154738     -64.0137028
9.373                0.936004475     -64.1135921
9.374                0.935853713     -64.2137372
9.375                0.935702451     -64.3141389
9.376                0.935550686     -64.4147982
9.377                0.935398417     -64.5157159
9.378                0.935245643     -64.6168929
9.379                0.935092362     -64.7183302
9.38                 0.934938572     -64.8200285
9.381                0.934784271     -64.9219888
9.382                0.934629458      -65.024212
9.383                0.934474132      -65.126699
9.384                0.934318291     -65.2294508
9.385                0.934161932     -65.3324681
9.386                0.934005055     -65.4357519
9.387                0.933847658     -65.5393032
9.388                0.933689739     -65.6431228
9.389                0.933531297     -65.7472118
9.39                 0.933372329     -65.8515709
9.391                0.933212835     -65.9562012
9.392                0.933052812     -66.0611035
9.393                0.932892259     -66.1662788
9.394                0.932731175     -66.2717281
9.395                0.932569557     -66.3774522
9.396                0.932407404     -66.4834522
9.397                0.932244714      -66.589729
9.398                0.932081486     -66.6962835
9.399                0.931917718     -66.8031167
9.4                  0.931753409     -66.9102295
9.401                0.931588556     -67.0176229
9.402                0.931423158     -67.1252979
9.403                0.931257214     -67.2332555
9.404                0.931090721     -67.3414965
9.405                0.930923679     -67.4500221
9.406                0.930756085     -67.5588331
9.407                0.930587937     -67.6679306
9.408                0.930419235     -67.7773155
9.409                0.930249976     -67.8869888
9.41                 0.930080159     -67.9969516
9.411                0.929909782     -68.1072047
9.412                0.929738844     -68.2177493
9.413                0.929567342     -68.3285863
9.414                0.929395275     -68.4397168
9.415                0.929222642     -68.5511416
9.416                0.929049441      -68.662862
9.417                 0.92887567     -68.7748788
9.418                0.928701327      -68.887193
9.419                0.928526411     -68.9998058
9.42                 0.928350921     -69.1127182
9.421                0.928174854      -69.225931
9.422                0.927998208     -69.3394455
9.423                0.927820983     -69.4532627
9.424                0.927643177     -69.5673835
9.425                0.927464787     -69.6818091
9.426                0.927285813     -69.7965404
9.427                0.927106252     -69.9115785
9.428                0.926926103     -70.0269246
9.429                0.926745365     -70.1425796
9.43                 0.926564035     -70.2585446
9.431                0.926382112     -70.3748206
9.432                0.926199595     -70.4914088
9.433                0.926016481     -70.6083102
9.434                0.925832769     -70.7255259
9.435                0.925648458      -70.843057
9.436                0.925463546     -70.9609045
9.437                0.925278031     -71.0790695
9.438                0.925091912     -71.1975532
9.439                0.924905186     -71.3163566
9.44                 0.924717853     -71.4354808
9.441                0.924529911     -71.5549269
9.442                0.924341357     -71.6746961
9.443                0.924152192     -71.7947894
9.444                0.923962412     -71.9152079
9.445                0.923772016     -72.0359528
9.446                0.923581003     -72.1570252
9.447                0.923389372     -72.2784262
9.448                0.923197119     -72.4001569
9.449                0.923004245     -72.5222184
9.45                 0.922810747      -72.644612
9.451                0.922616624     -72.7673386
9.452                0.922421874     -72.8903996
9.453                0.922226496     -73.0137959
9.454                0.922030488     -73.1375288
9.455                0.921833848     -73.2615994
9.456                0.921636575     -73.3860088
9.457                0.921438668     -73.5107583
9.458                0.921240125     -73.6358489
9.459                0.921040944     -73.7612819
9.46                 0.920841123     -73.8870583
9.461                0.920640663     -74.0131795
9.462                 0.92043956     -74.1396465
9.463                0.920237813     -74.2664605
9.464                0.920035421     -74.3936228
9.465                0.919832382     -74.5211344
9.466                0.919628695     -74.6489966
9.467                0.919424359     -74.7772106
9.468                0.919219371     -74.9057776
9.469                0.919013731     -75.0346988
9.47                 0.918807436     -75.1639753
9.471                0.918600487     -75.2936084
9.472                 0.91839288     -75.4235993
9.473                0.918184615     -75.5539492
9.474                 0.91797569     -75.6846593
9.475                0.917766104     -75.8157309
9.476                0.917555855     -75.9471651
9.477                0.917344942     -76.0789632
9.478                0.917133364     -76.2111264
9.479                0.916921119      -76.343656
9.48                 0.916708206     -76.4765531
9.481                0.916494624     -76.6098191
9.482                 0.91628037     -76.7434551
9.483                0.916065445     -76.8774625
9.484                0.915849846     -77.0118424
9.485                0.915633572     -77.1465962
9.486                0.915416622      -77.281725
9.487                0.915198995     -77.4172302
9.488                0.914980689     -77.5531129
9.489                0.914761703     -77.6893746
9.49                 0.914542037     -77.8260163
9.491                0.914321687     -77.9630395
9.492                0.914100654     -78.1004453
9.493                0.913878937     -78.2382351
9.494                0.913656533     -78.3764102
9.495                0.913433442     -78.5149718
9.496                0.913209663     -78.6539212
9.497                0.912985194     -78.7932597
9.498                0.912760034     -78.9329886
9.499                0.912534183     -79.0731092
9.5                  0.912307638     -79.2136229
9.501                  0.9120804     -79.3545308
9.502                0.911852467     -79.4958344
9.503                0.911623837     -79.6375348
9.504                 0.91139451     -79.7796336
9.505                0.911164485     -79.9221318
9.506                0.910933761      -80.065031
9.507                0.910702337     -80.2083323
9.508                0.910470211     -80.3520372
9.509                0.910237383      -80.496147
9.51                 0.910003852     -80.6406629
9.511                0.909769617     -80.7855863
9.512                0.909534677     -80.9309186
9.513                0.909299031     -81.0766611
9.514                0.909062679     -81.2228151
9.515                0.908825619      -81.369382
9.516                 0.90858785     -81.5163631
9.517                0.908349373     -81.6637598
9.518                0.908110185     -81.8115734
9.519                0.907870287     -81.9598053
9.52                 0.907629677     -82.1084569
9.521                0.907388355     -82.2575295
9.522                 0.90714632     -82.4070244
9.523                0.906903571     -82.5569431
9.524                0.906660108     -82.7072869
9.525                0.906415931     -82.8580572
9.526                0.906171038     -83.0092553
9.527                0.905925428     -83.1608827
9.528                0.905679103     -83.3129406
9.529                 0.90543206     -83.4654306
9.53                 0.905184299     -83.6183539
9.531                 0.90493582      -83.771712
9.532                0.904686623     -83.9255062
9.533                0.904436706     -84.0797379
9.534                0.904186071     -84.2344086
9.535                0.903934715     -84.3895196
9.536                0.903682639     -84.5450723
9.537                0.903429843     -84.7010681
9.538                0.903176326     -84.8575085
9.539                0.902922087     -85.0143947
9.54                 0.902667128     -85.1717283
9.541                0.902411447     -85.3295106
9.542                0.902155045     -85.4877431
9.543                 0.90189792      -85.646427
9.544                0.901640074      -85.805564
9.545                0.901381505     -85.9651553
9.546                0.901122215     -86.1252024
9.547                0.900862203     -86.2857067
9.548                0.900601468     -86.4466696
9.549                0.900340011     -86.6080925
9.55                 0.900077833     -86.7699769
9.551                0.899814933     -86.9323242
9.552                0.899551311     -87.0951358
9.553                0.899286967     -87.2584131
9.554                0.899021902     -87.4221576
9.555                0.898756116     -87.5863706
9.556                 0.89848961     -87.7510537
9.557                0.898222383     -87.9162082
9.558                0.897954436     -88.0818355
9.559                0.897685769     -88.2479372
9.56                 0.897416383     -88.4145146
9.561                0.897146279     -88.5815692
9.562                0.896875456     -88.7491023
9.563                0.896603916     -88.9171156
9.564                0.896331658     -89.0856102
9.565                0.896058684     -89.2545878
9.566                0.895784995     -89.4240497
9.567                 0.89551059     -89.5939974
9.568                0.895235472     -89.7644324
9.569                0.894959639     -89.9353559
9.57                 0.894683095     -90.1067696
9.571                0.894405838     -90.2786748
9.572                0.894127871      -90.451073
9.573                0.893849194     -90.6239655
9.574                0.893569809      -90.797354
9.575                0.893289716     -90.9712397
9.576                0.893008916     -91.1456241
9.577                0.892727411     -91.3205087
9.578                0.892445202     -91.4958948
9.579                 0.89216229      -91.671784
9.58                 0.891878677     -91.8481777
9.581                0.891594363     -92.0250773
9.582                0.891309351     -92.2024842
9.583                0.891023641     -92.3803999
9.584                0.890737236     -92.5588257
9.585                0.890450136     -92.7377633
9.586                0.890162345     -92.9172138
9.587                0.889873862     -93.0971789
9.588                 0.88958469     -93.2776599
9.589                 0.88929483     -93.4586583
9.59                 0.889004286     -93.6401755
9.591                0.888713057     -93.8222128
9.592                0.888421147     -94.0047718
9.593                0.888128557     -94.1878538
9.594                 0.88783529     -94.3714603
9.595                0.887541347     -94.5555927
9.596                0.887246731     -94.7402524
9.597                0.886951444     -94.9254408
9.598                0.886655489     -95.1111593
9.599                0.886358867     -95.2974094
9.6                  0.886061581     -95.4841924
9.601                0.885763633     -95.6715098