! TOUCHSTONE file generated by CST DESIGN STUDIO
! Date and time: Tue Feb  4 17:22:47 2025
! Project name: C:\Work\MatlabApps\UnitCellOptimizationMatlab\CST\unitcell.cst
! Tree item: Tasks\Sweep1\SPara1\S-Parameters
! Header version: 2024
! Port assignment regex: !\s*Touchstone port\s*([0-9]+)\s*=\s*(CST MWS port|CST DES external port|CST DES block port)\s*(.+)\s* \(\"(.*)\"\)(\s*mode\s*([0-9]+))?.*
! Touchstone port assignment:
! Touchstone port 1 = CST DES external port 1 ("")
# GHz S MA R 50
9                     0.97829192     -85.8821054
9.001                0.978231859     -86.0338977
9.002                0.978171266     -86.1861039
9.003                0.978110142      -86.338725
9.004                0.978048484     -86.4917622
9.005                 0.97798629     -86.6452167
9.006                0.977923558     -86.7990895
9.007                0.977860287     -86.9533819
9.008                0.977796476     -87.1080949
9.009                0.977732122     -87.2632297
9.01                 0.977667223     -87.4187875
9.011                0.977601778     -87.5747694
9.012                0.977535786     -87.7311766
9.013                0.977469244     -87.8880101
9.014                0.977402152     -88.0452712
9.015                0.977334506      -88.202961
9.016                0.977266307     -88.3610807
9.017                0.977197551     -88.5196313
9.018                0.977128238     -88.6786141
9.019                0.977058365     -88.8380301
9.02                 0.976987932     -88.9978806
9.021                0.976916936     -89.1581667
9.022                0.976845376     -89.3188895
9.023                 0.97677325     -89.4800501
9.024                0.976700558     -89.6416498
9.025                0.976627296     -89.8036896
9.026                0.976553464     -89.9661708
9.027                0.976479061     -90.1290944
9.028                0.976404084     -90.2924615
9.029                0.976328532     -90.4562735
9.03                 0.976252404     -90.6205313
9.031                0.976175698     -90.7852361
9.032                0.976098412     -90.9503891
9.033                0.976020546     -91.1159915
9.034                0.975942098     -91.2820442
9.035                0.975863066     -91.4485486
9.036                0.975783449     -91.6155056
9.037                0.975703245     -91.7829166
9.038                0.975622453     -91.9507825
9.039                0.975541073     -92.1191046
9.04                 0.975459101     -92.2878839
9.041                0.975376538     -92.4571216
9.042                0.975293381     -92.6268189
9.043                0.975209629     -92.7969768
9.044                0.975125282     -92.9675965
9.045                0.975040337     -93.1386791
9.046                0.974954794     -93.3102258
9.047                0.974868652     -93.4822376
9.048                0.974781908     -93.6547156
9.049                0.974694562     -93.8276611
9.05                 0.974606613     -94.0010751
9.051                0.974518059     -94.1749587
9.052                0.974428899      -94.349313
9.053                0.974339133     -94.5241392
9.054                0.974248758     -94.6994384
9.055                0.974157775     -94.8752116
9.056                0.974066181       -95.05146
9.057                0.973973976     -95.2281846
9.058                0.973881159     -95.4053867
9.059                0.973787728     -95.5830671
9.06                 0.973693683     -95.7612272
9.061                0.973599023     -95.9398678
9.062                0.973503747     -96.1189902
9.063                0.973407853     -96.2985955
9.064                0.973311342     -96.4786846
9.065                0.973214211     -96.6592587
9.066                 0.97311646     -96.8403188
9.067                0.973018089      -97.021866
9.068                0.972919096     -97.2039015
9.069                0.972819481     -97.3864261
9.07                 0.972719243     -97.5694411
9.071                 0.97261838     -97.7529475
9.072                0.972516894     -97.9369462
9.073                0.972414782     -98.1214385
9.074                0.972312044     -98.3064252
9.075                0.972208679     -98.4919075
9.076                0.972104687     -98.6778864
9.077                0.972000068     -98.8643629
9.078                 0.97189482      -99.051338
9.079                0.971788943     -99.2388128
9.08                 0.971682436     -99.4267883
9.081                  0.9715753     -99.6152655
9.082                0.971467533     -99.8042454
9.083                0.971359136     -99.9937291
9.084                0.971250107     -100.183717
9.085                0.971140447     -100.374211
9.086                0.971030155     -100.565212
9.087                 0.97091923     -100.756721
9.088                0.970807674     -100.948738
9.089                0.970695484     -101.141264
9.09                 0.970582662     -101.334302
9.091                0.970469206     -101.527851
9.092                0.970355118     -101.721912
9.093                0.970240396     -101.916487
9.094                 0.97012504     -102.111576
9.095                0.970009051      -102.30718
9.096                0.969892429     -102.503301
9.097                0.969775173     -102.699939
9.098                0.969657284     -102.897095
9.099                0.969538761     -103.094771
9.1                  0.969419606     -103.292966
9.101                0.969299817     -103.491681
9.102                0.969179396     -103.690919
9.103                0.969058342     -103.890679
9.104                0.968936655     -104.090963
9.105                0.968814337     -104.291771
9.106                0.968691388     -104.493104
9.107                0.968567807     -104.694963
9.108                0.968443595     -104.897349
9.109                0.968318754     -105.100263
9.11                 0.968193282     -105.303705
9.111                0.968067181     -105.507677
9.112                0.967940452     -105.712178
9.113                0.967813095     -105.917211
9.114                 0.96768511     -106.122776
9.115                0.967556499     -106.328873
9.116                0.967427263     -106.535503
9.117                0.967297401     -106.742668
9.118                0.967166915     -106.950367
9.119                0.967035806     -107.158602
9.12                 0.966904075     -107.367374
9.121                0.966771722     -107.576682
9.122                 0.96663875     -107.786528
9.123                0.966505158     -107.996913
9.124                0.966370948     -108.207837
9.125                0.966236121       -108.4193
9.126                0.966100679     -108.631305
9.127                0.965964622      -108.84385
9.128                0.965827952     -109.056938
9.129                0.965690671     -109.270568
9.13                 0.965552779     -109.484741
9.131                0.965414279     -109.699458
9.132                0.965275171     -109.914719
9.133                0.965135457     -110.130525
9.134                 0.96499514     -110.346877
9.135                 0.96485422     -110.563775
9.136                0.964712699      -110.78122
9.137                 0.96457058     -110.999212
9.138                0.964427863     -111.217752
9.139                0.964284551      -111.43684
9.14                 0.964140645     -111.656478
9.141                0.963996149     -111.876664
9.142                0.963851063     -112.097401
9.143                 0.96370539     -112.318687
9.144                0.963559131     -112.540525
9.145                 0.96341229     -112.762914
9.146                0.963264869     -112.985855
9.147                0.963116869     -113.209347
9.148                0.962968293     -113.433393
9.149                0.962819143     -113.657991
9.15                 0.962669423     -113.883143
9.151                0.962519134     -114.108848
9.152                0.962368279     -114.335107
9.153                0.962216861     -114.561921
9.154                0.962064883     -114.789289
9.155                0.961912346     -115.017213
9.156                0.961759255     -115.245692
9.157                0.961605612     -115.474726
9.158                 0.96145142     -115.704316
9.159                0.961296682     -115.934463
9.16                 0.961141401     -116.165165
9.161                 0.96098558     -116.396425
9.162                0.960829222     -116.628241
9.163                0.960672332     -116.860614
9.164                0.960514911     -117.093544
9.165                0.960356963     -117.327031
9.166                0.960198493     -117.561076
9.167                0.960039502     -117.795679
9.168                0.959879996     -118.030838
9.169                0.959719977     -118.266556
9.17                  0.95955945     -118.502831
9.171                0.959398417     -118.739665
9.172                0.959236884     -118.977056
9.173                0.959074853     -119.215005
9.174                0.958912329     -119.453511
9.175                0.958749316     -119.692576
9.176                0.958585817     -119.932198
9.177                0.958421838     -120.172378
9.178                0.958257382     -120.413116
9.179                0.958092454     -120.654411
9.18                 0.957927057     -120.896264
9.181                0.957761197     -121.138674
9.182                0.957594878     -121.381641
9.183                0.957428105     -121.625164
9.184                0.957260881     -121.869245
9.185                0.957093212     -122.113882
9.186                0.956925103     -122.359076
9.187                0.956756559     -122.604825
9.188                0.956587584      -122.85113
9.189                0.956418183     -123.097991
9.19                 0.956248361     -123.345407
9.191                0.956078124     -123.593377
9.192                0.955907477     -123.841902
9.193                0.955736424     -124.090981
9.194                0.955564972     -124.340613
9.195                0.955393126     -124.590799
9.196                0.955220891     -124.841537
9.197                0.955048272     -125.092828
9.198                0.954875276      -125.34467
9.199                0.954701908     -125.597064
9.2                  0.954528173     -125.850008
9.201                0.954354078     -126.103502
9.202                0.954179629     -126.357546
9.203                 0.95400483     -126.612139
9.204                 0.95382969      -126.86728
9.205                0.953654213     -127.122969
9.206                0.953478405     -127.379205
9.207                0.953302273     -127.635987
9.208                0.953125824     -127.893314
9.209                0.952949063     -128.151187
9.21                 0.952771998     -128.409603
9.211                0.952594634     -128.668562
9.212                0.952416978     -128.928064
9.213                0.952239037     -129.188107
9.214                0.952060817     -129.448691
9.215                0.951882326     -129.709815
9.216                 0.95170357     -129.971477
9.217                0.951524556     -130.233678
9.218                0.951345291     -130.496415
9.219                0.951165783     -130.759688
9.22                 0.950986038     -131.023496
9.221                0.950806063     -131.287837
9.222                0.950625867     -131.552712
9.223                0.950445455     -131.818118
9.224                0.950264836     -132.084054
9.225                0.950084018      -132.35052
9.226                0.949903007     -132.617513
9.227                0.949721811     -132.885034
9.228                0.949540438      -133.15308
9.229                0.949358895     -133.421651
9.23                 0.949177192     -133.690745
9.231                0.948995334     -133.960361
9.232                0.948813331     -134.230497
9.233                 0.94863119     -134.501152
9.234                 0.94844892     -134.772325
9.235                0.948266528     -135.044013
9.236                0.948084022     -135.316217
9.237                0.947901412     -135.588934
9.238                0.947718705     -135.862163
9.239                0.947535909     -136.135902
9.24                 0.947353034     -136.410149
9.241                0.947170087     -136.684904
9.242                0.946987077     -136.960164
9.243                0.946804013     -137.235928
9.244                0.946620904     -137.512194
9.245                0.946437758      -137.78896
9.246                0.946254583     -138.066225
9.247                 0.94607139     -138.343987
9.248                0.945888186     -138.622243
9.249                0.945704981     -138.900993
9.25                 0.945521784     -139.180235
9.251                0.945338603     -139.459966
9.252                0.945155448     -139.740184
9.253                0.944972329     -140.020888
9.254                0.944789253     -140.302076
9.255                0.944606231     -140.583745
9.256                0.944423273     -140.865894
9.257                0.944240386      -141.14852
9.258                0.944057581     -141.431622
9.259                0.943874868     -141.715197
9.26                 0.943692255     -141.999243
9.261                0.943509752     -142.283759
9.262                0.943327369     -142.568741
9.263                0.943145116     -142.854187
9.264                0.942963002     -143.140096
9.265                0.942781037     -143.426465
9.266                0.942599231     -143.713292
9.267                0.942417594     -144.000574
9.268                0.942236135     -144.288309
9.269                0.942054864     -144.576494
9.27                 0.941873792     -144.865127
9.271                0.941692928     -145.154206
9.272                0.941512282     -145.443728
9.273                0.941331864      -145.73369
9.274                0.941151685     -146.024091
9.275                0.940971755     -146.314926
9.276                0.940792083     -146.606195
9.277                 0.94061268     -146.897893
9.278                0.940433556     -147.190019
9.279                0.940254721      -147.48257
9.28                 0.940076186     -147.775543
9.281                 0.93989796     -148.068934
9.282                0.939720055     -148.362743
9.283                0.939542479     -148.656964
9.284                0.939365245     -148.951597
9.285                0.939188362     -149.246637
9.286                 0.93901184     -149.542082
9.287                 0.93883569     -149.837929
9.288                0.938659922     -150.134175
9.289                0.938484547     -150.430816
9.29                 0.938309575     -150.727851
9.291                0.938135017     -151.025276
9.292                0.937960883     -151.323087
9.293                0.937787183     -151.621282
9.294                0.937613929     -151.919858
9.295                0.937441129      -152.21881
9.296                0.937268796     -152.518137
9.297                0.937096939     -152.817835
9.298                 0.93692557     -153.117901
9.299                0.936754697     -153.418331
9.3                  0.936584333     -153.719121
9.301                0.936414487      -154.02027
9.302                 0.93624517     -154.321773
9.303                0.936076393     -154.623626
9.304                0.935908165     -154.925828
9.305                0.935740498     -155.228373
9.306                0.935573401     -155.531259
9.307                0.935406886     -155.834482
9.308                0.935240963     -156.138038
9.309                0.935075641     -156.441925
9.31                 0.934910933     -156.746138
9.311                0.934746847     -157.050673
9.312                0.934583395     -157.355528
9.313                0.934420586     -157.660699
9.314                0.934258431     -157.966181
9.315                0.934096941     -158.271971
9.316                0.933936125     -158.578066
9.317                0.933775994     -158.884461
9.318                0.933616558     -159.191153
9.319                0.933457827     -159.498138
9.32                 0.933299812     -159.805413
9.321                0.933142523     -160.112973
9.322                0.932985969     -160.420814
9.323                0.932830161     -160.728933
9.324                0.932675108     -161.037325
9.325                0.932520821     -161.345988
9.326                0.932367311     -161.654916
9.327                0.932214585     -161.964105
9.328                0.932062655     -162.273553
9.329                0.931911531     -162.583254
9.33                 0.931761221     -162.893205
9.331                0.931611737     -163.203402
9.332                0.931463087      -163.51384
9.333                0.931315281     -163.824515
9.334                0.931168328     -164.135424
9.335                0.931022239     -164.446561
9.336                0.930877022     -164.757924
9.337                0.930732688     -165.069508
9.338                0.930589245     -165.381308
9.339                0.930446702      -165.69332
9.34                  0.93030507      -166.00554
9.341                0.930164356     -166.317964
9.342                0.930024571     -166.630587
9.343                0.929885723     -166.943406
9.344                0.929747821     -167.256416
9.345                0.929610874     -167.569612
9.346                0.929474891      -167.88299
9.347                 0.92933988     -168.196546
9.348                0.929205851     -168.510276
9.349                0.929072812     -168.824174
9.35                 0.928940771     -169.138237
9.351                0.928809737     -169.452461
9.352                0.928679718      -169.76684
9.353                0.928550723      -170.08137
9.354                0.928422759     -170.396047
9.355                0.928295835     -170.710867
9.356                 0.92816996     -171.025824
9.357                 0.92804514     -171.340915
9.358                0.927921383     -171.656134
9.359                0.927798699     -171.971478
9.36                 0.927677093     -172.286942
9.361                0.927556574     -172.602521
9.362                 0.92743715      -172.91821
9.363                0.927318827     -173.234006
9.364                0.927201613     -173.549903
9.365                0.927085515     -173.865896
9.366                0.926970541     -174.181983
9.367                0.926856697     -174.498156
9.368                0.926743991     -174.814413
9.369                0.926632428     -175.130749
9.37                 0.926522017     -175.447158
9.371                0.926412763     -175.763636
9.372                0.926304673     -176.080179
9.373                0.926197754     -176.396782
9.374                0.926092011      -176.71344
9.375                0.925987452     -177.030149
9.376                0.925884081     -177.346903
9.377                0.925781906     -177.663699
9.378                0.925680931     -177.980531
9.379                0.925581164     -178.297395
9.38                 0.925482608     -178.614287
9.381                0.925385271     -178.931201
9.382                0.925289157     -179.248132
9.383                0.925194272     -179.565077
9.384                0.925100621     -179.882031
9.385                0.925008209      179.801012
9.386                0.924917041      179.484056
9.387                0.924827123      179.167105
9.388                0.924738457      178.850165
9.389                0.924651051      178.533239
9.39                 0.924564907      178.216333
9.391                 0.92448003      177.899452
9.392                0.924396425        177.5826
9.393                0.924314096      177.265781
9.394                0.924233046         176.949
9.395                 0.92415328      176.632263
9.396                0.924074802      176.315573
9.397                0.923997615      175.998936
9.398                0.923921722      175.682356
9.399                0.923847128      175.365838
9.4                  0.923773836      175.049385
9.401                0.923701848      174.733004
9.402                0.923631168      174.416699
9.403                0.923561799      174.100474
9.404                0.923493743      173.784333
9.405                0.923427004      173.468282
9.406                0.923361583      173.152326
9.407                0.923297484      172.836468
9.408                0.923234709      172.520713
9.409                 0.92317326      172.205066
9.41                 0.923113138      171.889532
9.411                0.923054347      171.574114
9.412                0.922996887      171.258819
9.413                0.922940761      170.943649
9.414                 0.92288597       170.62861
9.415                0.922832515      170.313706
9.416                0.922780399      169.998942
9.417                0.922729621      169.684322
9.418                0.922680184      169.369851
9.419                0.922632089      169.055533
9.42                 0.922585335      168.741373
9.421                0.922539924      168.427374
9.422                0.922495856      168.113542
9.423                0.922453133      167.799881
9.424                0.922411753      167.486395
9.425                0.922371718      167.173089
9.426                0.922333028      166.859967
9.427                0.922295682      166.547033
9.428                0.922259681      166.234292
9.429                0.922225024      165.921748
9.43                 0.922191711      165.609406
9.431                0.922159742      165.297269
9.432                0.922129115      164.985342
9.433                 0.92209983      164.673629
9.434                0.922071887      164.362135
9.435                0.922045284      164.050863
9.436                 0.92202002      163.739818
9.437                0.921996094      163.429004
9.438                0.921973505      163.118425
9.439                0.921952251      162.808085
9.44                 0.921932331      162.497989
9.441                0.921913743       162.18814
9.442                0.921896485      161.878542
9.443                0.921880556      161.569201
9.444                0.921865954      161.260119
9.445                0.921852676        160.9513
9.446                 0.92184072       160.64275
9.447                0.921830084      160.334471
9.448                0.921820766      160.026467
9.449                0.921812762      159.718743
9.45                 0.921806071      159.411302
9.451                 0.92180069      159.104149
9.452                0.921796615      158.797286
9.453                0.921793844      158.490719
9.454                0.921792374       158.18445
9.455                0.921792201      157.878484
9.456                0.921793323      157.572824
9.457                0.921795736      157.267474
9.458                0.921799436      156.962437
9.459                0.921804421      156.657718
9.46                 0.921810685      156.353321
9.461                0.921818227      156.049247
9.462                0.921827041      155.745502
9.463                0.921837123      155.442089
9.464                0.921848471      155.139011
9.465                 0.92186108      154.836273
9.466                0.921874944      154.533876
9.467                0.921890061      154.231826
9.468                0.921906426      153.930124
9.469                0.921924034      153.628776
9.47                 0.921942881      153.327784
9.471                0.921962962      153.027151
9.472                0.921984273      152.726881
9.473                0.922006808      152.426977
9.474                0.922030563      152.127443
9.475                0.922055532      151.828281
9.476                0.922081711      151.529495
9.477                0.922109095      151.231088
9.478                0.922137678      150.933064
9.479                0.922167454      150.635425
9.48                  0.92219842      150.338174
9.481                0.922230569      150.041315
9.482                0.922263895      149.744851
9.483                0.922298394      149.448784
9.484                0.922334059      149.153118
9.485                0.922370885      148.857855
9.486                0.922408866         148.563
9.487                0.922447997      148.268553
9.488                 0.92248827      147.974519
9.489                0.922529681        147.6809
9.49                 0.922572223      147.387699
9.491                 0.92261589      147.094919
9.492                0.922660676      146.802563
9.493                0.922706575      146.510633
9.494                0.922753581      146.219131
9.495                0.922801686      145.928062
9.496                0.922850886      145.637426
9.497                0.922901173      145.347228
9.498                 0.92295254      145.057469
9.499                0.923004982      144.768152
9.5                  0.923058492       144.47928
9.501                0.923113062      144.190854
9.502                0.923168688      143.902878
9.503                 0.92322536      143.615354
9.504                0.923283074      143.328285
9.505                0.923341822      143.041672
9.506                0.923401597      142.755518
9.507                0.923462392      142.469825
9.508                0.923524201      142.184596
9.509                0.923587016      141.899833
9.51                  0.92365083      141.615538
9.511                0.923715637      141.331713
9.512                0.923781429      141.048361
9.513                0.923848198      140.765483
9.514                0.923915939      140.483082
9.515                0.923984644       140.20116
9.516                0.924054305      139.919718
9.517                0.924124915      139.638759
9.518                0.924196467      139.358285
9.519                0.924268954      139.078297
9.52                 0.924342369      138.798799
9.521                0.924416703       138.51979
9.522                 0.92449195      138.241274
9.523                0.924568102      137.963253
9.524                0.924645151      137.685727
9.525                0.924723092      137.408699
9.526                0.924801915      137.132171
9.527                0.924881613      136.856144
9.528                 0.92496218      136.580619
9.529                0.925043606        136.3056
9.53                 0.925125886      136.031086
9.531                0.925209011      135.757081
9.532                0.925292974      135.483584
9.533                0.925377767      135.210599
9.534                0.925463382      134.938126
9.535                0.925549813      134.666167
9.536                0.925637051      134.394723
9.537                0.925725089      134.123796
9.538                0.925813919      133.853388
9.539                0.925903534      133.583499
9.54                 0.925993926       133.31413
9.541                0.926085088      133.045284
9.542                0.926177011      132.776962
9.543                0.926269689      132.509164
9.544                0.926363113      132.241893
9.545                0.926457276      131.975148
9.546                 0.92655217      131.708932
9.547                0.926647788      131.443245
9.548                0.926744122      131.178089
9.549                0.926841165      130.913465
9.55                 0.926938909      130.649374
9.551                0.927037346      130.385817
9.552                0.927136468      130.122794
9.553                0.927236269      129.860308
9.554                 0.92733674      129.598358
9.555                0.927437875      129.336946
9.556                0.927539664      129.076073
9.557                0.927642102      128.815739
9.558                 0.92774518      128.555946
9.559                0.927848891      128.296694
9.56                 0.927953227      128.037984
9.561                0.928058181      127.779817
9.562                0.928163745      127.522194
9.563                0.928269912      127.265115
9.564                0.928376675      127.008581
9.565                0.928484025      126.752593
9.566                0.928591956      126.497152
9.567                0.928700461      126.242258
9.568                0.928809531      125.987911
9.569                 0.92891916      125.734113
9.57                 0.929029339      125.480863
9.571                0.929140063      125.228163
9.572                0.929251323      124.976013
9.573                0.929363112      124.724414
9.574                0.929475423      124.473365
9.575                0.929588249      124.222868
9.576                0.929701582      123.972923
9.577                0.929815416       123.72353
9.578                0.929929743      123.474689
9.579                0.930044556      123.226401
9.58                 0.930159848      122.978667
9.581                0.930275612      122.731487
9.582                0.930391841       122.48486
9.583                0.930508527      122.238788
9.584                0.930625664       121.99327
9.585                0.930743246      121.748307
9.586                0.930861263      121.503898
9.587                0.930979711      121.260045
9.588                0.931098582      121.016748
9.589                 0.93121787      120.774005
9.59                 0.931337566      120.531818
9.591                0.931457666      120.290187
9.592                0.931578161      120.049112
9.593                0.931699045      119.808593
9.594                0.931820312       119.56863
9.595                0.931941954      119.329222
9.596                0.932063966      119.090371
9.597                 0.93218634      118.852075
9.598                 0.93230907      118.614336
9.599                 0.93243215      118.377153
9.6                  0.932555573      118.140525
9.601                0.932679332      117.904453