! TOUCHSTONE file generated by CST DESIGN STUDIO
! Date and time: Wed Feb  5 13:37:23 2025
! Project name: C:\Work\MatlabApps\UnitCellOptimizationMatlab\CST\unitcell.cst
! Tree item: Tasks\Sweep1\SPara1\S-Parameters
! Header version: 2024
! Port assignment regex: !\s*Touchstone port\s*([0-9]+)\s*=\s*(CST MWS port|CST DES external port|CST DES block port)\s*(.+)\s* \(\"(.*)\"\)(\s*mode\s*([0-9]+))?.*
! Touchstone port assignment:
! Touchstone port 1 = CST DES external port 1 ("")
# GHz S MA R 50
9                    0.980159396     -70.8822975
9.001                0.980113711     -70.9865338
9.002                0.980067888     -71.0910235
9.003                0.980021924     -71.1957674
9.004                0.979975821     -71.3007662
9.005                0.979929577     -71.4060207
9.006                0.979883192     -71.5115317
9.007                0.979836665     -71.6173001
9.008                0.979789998     -71.7233265
9.009                0.979743188     -71.8296119
9.01                 0.979696236     -71.9361569
9.011                0.979649141     -72.0429624
9.012                0.979601903     -72.1500291
9.013                0.979554521      -72.257358
9.014                0.979506996     -72.3649497
9.015                0.979459326     -72.4728051
9.016                0.979411512      -72.580925
9.017                0.979363553     -72.6893103
9.018                0.979315448     -72.7979616
9.019                0.979267198     -72.9068798
9.02                 0.979218802     -73.0160659
9.021                0.979170259     -73.1255204
9.022                 0.97912157     -73.2352444
9.023                0.979072734     -73.3452386
9.024                 0.97902375     -73.4555038
9.025                0.978974618     -73.5660408
9.026                0.978925338     -73.6768506
9.027                0.978875909     -73.7879339
9.028                0.978826331     -73.8992915
9.029                0.978776604     -74.0109244
9.03                 0.978726728     -74.1228332
9.031                0.978676701      -74.235019
9.032                0.978626524     -74.3474825
9.033                0.978576196     -74.4602245
9.034                0.978525717     -74.5732459
9.035                0.978475087     -74.6865476
9.036                0.978424305     -74.8001305
9.037                 0.97837337     -74.9139952
9.038                0.978322284     -75.0281428
9.039                0.978271044     -75.1425741
9.04                 0.978219651       -75.25729
9.041                0.978168105     -75.3722912
9.042                0.978116404     -75.4875787
9.043                0.978064549     -75.6031533
9.044                 0.97801254      -75.719016
9.045                0.977960376     -75.8351675
9.046                0.977908056     -75.9516088
9.047                0.977855581     -76.0683407
9.048                 0.97780295      -76.185364
9.049                0.977750163     -76.3026798
9.05                 0.977697219     -76.4202889
9.051                0.977644118      -76.538192
9.052                0.977590859     -76.6563903
9.053                0.977537443     -76.7748844
9.054                0.977483869     -76.8936753
9.055                0.977430137      -77.012764
9.056                0.977376246     -77.1321513
9.057                0.977322196      -77.251838
9.058                0.977267986     -77.3718251
9.059                0.977213617     -77.4921136
9.06                 0.977159088     -77.6127042
9.061                0.977104399     -77.7335979
9.062                0.977049549     -77.8547957
9.063                0.976994539     -77.9762983
9.064                0.976939367     -78.0981068
9.065                0.976884033      -78.220222
9.066                0.976828538     -78.3426448
9.067                0.976772881     -78.4653763
9.068                0.976717061     -78.5884172
9.069                0.976661078     -78.7117685
9.07                 0.976604933     -78.8354312
9.071                0.976548624     -78.9594061
9.072                0.976492151     -79.0836942
9.073                0.976435514     -79.2082964
9.074                0.976378713     -79.3332136
9.075                0.976321748     -79.4584468
9.076                0.976264618     -79.5839969
9.077                0.976207322     -79.7098648
9.078                0.976149861     -79.8360516
9.079                0.976092235      -79.962558
9.08                 0.976034442     -80.0893851
9.081                0.975976484     -80.2165338
9.082                0.975918359      -80.344005
9.083                0.975860067     -80.4717997
9.084                0.975801608     -80.5999189
9.085                0.975742981     -80.7283634
9.086                0.975684187     -80.8571343
9.087                0.975625226     -80.9862325
9.088                0.975566096     -81.1156589
9.089                0.975506798     -81.2454146
9.09                 0.975447331     -81.3755004
9.091                0.975387696     -81.5059173
9.092                0.975327891     -81.6366663
9.093                0.975267917     -81.7677484
9.094                0.975207774     -81.8991644
9.095                0.975147461     -82.0309155
9.096                0.975086978     -82.1630025
9.097                0.975026324     -82.2954264
9.098                  0.9749655     -82.4281882
9.099                0.974904506     -82.5612888
9.1                   0.97484334     -82.6947293
9.101                0.974782004     -82.8285107
9.102                0.974720496     -82.9626338
9.103                0.974658817     -83.0970996
9.104                0.974596966     -83.2319092
9.105                0.974534943     -83.3670636
9.106                0.974472748     -83.5025636
9.107                0.974410381     -83.6384104
9.108                0.974347841     -83.7746048
9.109                0.974285129     -83.9111479
9.11                 0.974222244     -84.0480407
9.111                0.974159186     -84.1852841
9.112                0.974095955     -84.3228791
9.113                 0.97403255     -84.4608268
9.114                0.973968972     -84.5991281
9.115                0.973905221      -84.737784
9.116                0.973841296     -84.8767955
9.117                0.973777197     -85.0161636
9.118                0.973712924     -85.1558893
9.119                0.973648476     -85.2959737
9.12                 0.973583855     -85.4364176
9.121                0.973519059     -85.5772221
9.122                0.973454089     -85.7183882
9.123                0.973388944      -85.859917
9.124                0.973323624     -86.0018093
9.125                0.973258129     -86.1440663
9.126                 0.97319246     -86.2866889
9.127                0.973126615     -86.4296781
9.128                0.973060596     -86.5730349
9.129                0.972994401     -86.7167604
9.13                 0.972928031     -86.8608556
9.131                0.972861486     -87.0053214
9.132                0.972794766     -87.1501588
9.133                 0.97272787      -87.295369
9.134                0.972660798     -87.4409528
9.135                0.972593551     -87.5869113
9.136                0.972526129     -87.7332456
9.137                0.972458531     -87.8799566
9.138                0.972390758     -88.0270453
9.139                0.972322809     -88.1745127
9.14                 0.972254684       -88.32236
9.141                0.972186384      -88.470588
9.142                0.972117908     -88.6191978
9.143                0.972049256     -88.7681904
9.144                 0.97198043     -88.9175669
9.145                0.971911427     -89.0673282
9.146                0.971842249     -89.2174753
9.147                0.971772896     -89.3680094
9.148                0.971703367     -89.5189313
9.149                0.971633663     -89.6702421
9.15                 0.971563784     -89.8219429
9.151                0.971493729     -89.9740345
9.152                  0.9714235     -90.1265182
9.153                0.971353095     -90.2793948
9.154                0.971282515     -90.4326654
9.155                0.971211761      -90.586331
9.156                0.971140832     -90.7403927
9.157                0.971069728     -90.8948513
9.158                 0.97099845      -91.049708
9.159                0.970926997     -91.2049638
9.16                 0.970855371     -91.3606197
9.161                 0.97078357     -91.5166766
9.162                0.970711595     -91.6731357
9.163                0.970639447     -91.8299978
9.164                0.970567125     -91.9872641
9.165                 0.97049463     -92.1449356
9.166                0.970421962     -92.3030132
9.167                0.970349121     -92.4614979
9.168                0.970276107     -92.6203908
9.169                0.970202921     -92.7796929
9.17                 0.970129562     -92.9394052
9.171                0.970056032     -93.0995287
9.172                 0.96998233     -93.2600644
9.173                0.969908456     -93.4210132
9.174                0.969834411     -93.5823763
9.175                0.969760195     -93.7441546
9.176                0.969685809     -93.9063491
9.177                0.969611253     -94.0689608
9.178                0.969536526     -94.2319908
9.179                 0.96946163     -94.3954399
9.18                 0.969386564     -94.5593092
9.181                 0.96931133     -94.7235997
9.182                0.969235927     -94.8883124
9.183                0.969160356     -95.0534483
9.184                0.969084617     -95.2190083
9.185                 0.96900871     -95.3849935
9.186                0.968932637     -95.5514048
9.187                0.968856396     -95.7182432
9.188                 0.96877999     -95.8855098
9.189                0.968703418     -96.0532054
9.19                 0.968626681     -96.2213311
9.191                0.968549779     -96.3898878
9.192                0.968472712     -96.5588765
9.193                0.968395482     -96.7282982
9.194                0.968318088     -96.8981538
9.195                0.968240531     -97.0684443
9.196                0.968162812     -97.2391708
9.197                0.968084932      -97.410334
9.198                 0.96800689     -97.5819351
9.199                0.967928687     -97.7539749
9.2                  0.967850325     -97.9264544
9.201                0.967771803     -98.0993745
9.202                0.967693122     -98.2727363
9.203                0.967614282     -98.4465405
9.204                0.967535286     -98.6207883
9.205                0.967456132     -98.7954805
9.206                0.967376822      -98.970618
9.207                0.967297356     -99.1462019
9.208                0.967217735     -99.3222329
9.209                 0.96713796     -99.4987121
9.21                 0.967058031     -99.6756403
9.211                 0.96697795     -99.8530185
9.212                0.966897716     -100.030848
9.213                0.966817331     -100.209129
9.214                0.966736796     -100.387862
9.215                0.966656111     -100.567049
9.216                0.966575277     -100.746691
9.217                0.966494295     -100.926788
9.218                0.966413165     -101.107342
9.219                0.966331889     -101.288352
9.22                 0.966250468     -101.469821
9.221                0.966168902     -101.651748
9.222                0.966087192     -101.834136
9.223                0.966005339     -102.016984
9.224                0.965923344     -102.200293
9.225                0.965841208     -102.384065
9.226                0.965758932       -102.5683
9.227                0.965676518        -102.753
9.228                0.965593965     -102.938164
9.229                0.965511275     -103.123794
9.23                 0.965428448      -103.30989
9.231                0.965345487     -103.496454
9.232                0.965262392     -103.683486
9.233                0.965179165     -103.870988
9.234                0.965095805     -104.058959
9.235                0.965012315     -104.247401
9.236                0.964928695     -104.436314
9.237                0.964844947     -104.625699
9.238                0.964761072     -104.815558
9.239                0.964677071     -105.005891
9.24                 0.964592945     -105.196698
9.241                0.964508696      -105.38798
9.242                0.964424324     -105.579738
9.243                0.964339831     -105.771974
9.244                0.964255219     -105.964687
9.245                0.964170488     -106.157878
9.246                0.964085639     -106.351549
9.247                0.964000675     -106.545699
9.248                0.963915597      -106.74033
9.249                0.963830405     -106.935442
9.25                 0.963745102     -107.131036
9.251                0.963659688     -107.327113
9.252                0.963574166     -107.523673
9.253                0.963488536     -107.720717
9.254                  0.9634028     -107.918246
9.255                 0.96331696      -108.11626
9.256                0.963231016      -108.31476
9.257                0.963144972     -108.513747
9.258                0.963058827     -108.713222
9.259                0.962972584     -108.913184
9.26                 0.962886245     -109.113634
9.261                 0.96279981     -109.314574
9.262                0.962713282     -109.516004
9.263                0.962626663     -109.717924
9.264                0.962539953     -109.920335
9.265                0.962453155     -110.123238
9.266                 0.96236627     -110.326633
9.267                  0.9622793      -110.53052
9.268                0.962192246     -110.734901
9.269                0.962105112     -110.939776
9.27                 0.962017898     -111.145145
9.271                0.961930606     -111.351008
9.272                0.961843238     -111.557367
9.273                0.961755796     -111.764222
9.274                0.961668282     -111.971573
9.275                0.961580697     -112.179422
9.276                0.961493045     -112.387767
9.277                0.961405325      -112.59661
9.278                0.961317542     -112.805951
9.279                0.961229696     -113.015792
9.28                  0.96114179     -113.226131
9.281                0.961053825     -113.436969
9.282                0.960965804     -113.648308
9.283                0.960877729     -113.860147
9.284                0.960789602     -114.072486
9.285                0.960701424     -114.285327
9.286                  0.9606132     -114.498668
9.287                0.960524929     -114.712512
9.288                0.960436615     -114.926858
9.289                 0.96034826     -115.141706
9.29                 0.960259866     -115.357057
9.291                0.960171436     -115.572911
9.292                0.960082971     -115.789268
9.293                0.959994474     -116.006129
9.294                0.959905947     -116.223494
9.295                0.959817394     -116.441362
9.296                0.959728815     -116.659735
9.297                0.959640213     -116.878613
9.298                0.959551592     -117.097995
9.299                0.959462953     -117.317882
9.3                  0.959374299     -117.538275
9.301                0.959285632     -117.759172
9.302                0.959196955     -117.980576
9.303                0.959108271     -118.202484
9.304                0.959019582     -118.424899
9.305                 0.95893089     -118.647819
9.306                0.958842199     -118.871245
9.307                 0.95875351     -119.095177
9.308                0.958664827     -119.319615
9.309                0.958576152     -119.544559
9.31                 0.958487489     -119.770009
9.311                0.958398839     -119.995965
9.312                0.958310205     -120.222428
9.313                0.958221591     -120.449397
9.314                0.958132999     -120.676871
9.315                0.958044432     -120.904852
9.316                0.957955893     -121.133339
9.317                0.957867384     -121.362332
9.318                0.957778909      -121.59183
9.319                0.957690471     -121.821834
9.32                 0.957602072     -122.052344
9.321                0.957513715      -122.28336
9.322                0.957425404      -122.51488
9.323                0.957337141     -122.746906
9.324                 0.95724893     -122.979437
9.325                0.957160774     -123.212472
9.326                0.957072675     -123.446012
9.327                0.956984637     -123.680056
9.328                0.956896662     -123.914604
9.329                0.956808755     -124.149656
9.33                 0.956720918     -124.385211
9.331                0.956633155      -124.62127
9.332                0.956545468     -124.857831
9.333                0.956457862     -125.094894
9.334                0.956370338      -125.33246
9.335                0.956282901     -125.570527
9.336                0.956195554     -125.809095
9.337                  0.9561083     -126.048165
9.338                0.956021142     -126.287734
9.339                0.955934084     -126.527804
9.34                  0.95584713     -126.768372
9.341                0.955760282      -127.00944
9.342                0.955673545     -127.251006
9.343                0.955586921      -127.49307
9.344                0.955500414     -127.735632
9.345                0.955414028      -127.97869
9.346                0.955327766     -128.222244
9.347                0.955241632     -128.466293
9.348                0.955155629     -128.710838
9.349                0.955069761     -128.955876
9.35                 0.954984031     -129.201408
9.351                0.954898444     -129.447433
9.352                0.954813002      -129.69395
9.353                 0.95472771     -129.940958
9.354                 0.95464257     -130.188457
9.355                0.954557588     -130.436445
9.356                0.954472766     -130.684923
9.357                0.954388108     -130.933888
9.358                0.954303619     -131.183341
9.359                0.954219301      -131.43328
9.36                 0.954135159     -131.683704
9.361                0.954051196     -131.934614
9.362                0.953967416     -132.186006
9.363                0.953883823     -132.437882
9.364                0.953800422     -132.690239
9.365                0.953717215     -132.943076
9.366                0.953634207     -133.196394
9.367                0.953551402      -133.45019
9.368                0.953468803     -133.704463
9.369                0.953386415     -133.959213
9.37                 0.953304241     -134.214438
9.371                0.953222285     -134.470138
9.372                0.953140552      -134.72631
9.373                0.953059046     -134.982954
9.374                0.952977769     -135.240069
9.375                0.952896728     -135.497653
9.376                0.952815924     -135.755705
9.377                0.952735364     -136.014224
9.378                0.952655049     -136.273208
9.379                0.952574986     -136.532657
9.38                 0.952495177     -136.792569
9.381                0.952415628     -137.052942
9.382                0.952336341     -137.313775
9.383                0.952257321     -137.575066
9.384                0.952178573     -137.836815
9.385                0.952100099     -138.099019
9.386                0.952021906     -138.361678
9.387                0.951943996      -138.62479
9.388                0.951866374     -138.888352
9.389                0.951789044     -139.152364
9.39                  0.95171201     -139.416825
9.391                0.951635276     -139.681731
9.392                0.951558847     -139.947082
9.393                0.951482727     -140.212877
9.394                 0.95140692     -140.479113
9.395                 0.95133143     -140.745788
9.396                0.951256261     -141.012901
9.397                0.951181418     -141.280451
9.398                0.951106905     -141.548435
9.399                0.951032726     -141.816851
9.4                  0.950958885     -142.085698
9.401                0.950885387     -142.354974
9.402                0.950812236     -142.624677
9.403                0.950739436     -142.894805
9.404                0.950666991     -143.165357
9.405                0.950594905     -143.436329
9.406                0.950523183     -143.707721
9.407                0.950451829     -143.979529
9.408                0.950380848     -144.251753
9.409                0.950310243      -144.52439
9.41                 0.950240018     -144.797438
9.411                0.950170179     -145.070895
9.412                0.950100728     -145.344759
9.413                0.950031671     -145.619027
9.414                0.949963012     -145.893698
9.415                0.949894755     -146.168768
9.416                0.949826903     -146.444237
9.417                0.949759462     -146.720102
9.418                0.949692435     -146.996359
9.419                0.949625827     -147.273008
9.42                 0.949559642     -147.550046
9.421                0.949493884      -147.82747
9.422                0.949428556     -148.105279
9.423                0.949363665     -148.383468
9.424                0.949299213     -148.662038
9.425                0.949235204     -148.940983
9.426                0.949171643     -149.220303
9.427                0.949108534     -149.499995
9.428                0.949045881     -149.780056
9.429                0.948983688     -150.060484
9.43                  0.94892196     -150.341276
9.431                0.948860699     -150.622429
9.432                0.948799911     -150.903941
9.433                0.948739599      -151.18581
9.434                0.948679768     -151.468032
9.435                0.948620421     -151.750605
9.436                0.948561562     -152.033526
9.437                0.948503195     -152.316792
9.438                0.948445325     -152.600401
9.439                0.948387955      -152.88435
9.44                  0.94833109     -153.168636
9.441                0.948274732     -153.453256
9.442                0.948218886     -153.738207
9.443                0.948163556     -154.023487
9.444                0.948108745     -154.309093
9.445                0.948054458      -154.59502
9.446                0.948000698     -154.881268
9.447                0.947947469     -155.167832
9.448                0.947894775      -155.45471
9.449                0.947842619     -155.741899
9.45                 0.947791006     -156.029395
9.451                0.947739938     -156.317196
9.452                0.947689419     -156.605298
9.453                0.947639454     -156.893699
9.454                0.947590045     -157.182395
9.455                0.947541197     -157.471383
9.456                0.947492912      -157.76066
9.457                0.947445194     -158.050223
9.458                0.947398047     -158.340068
9.459                0.947351474     -158.630192
9.46                 0.947305479     -158.920593
9.461                0.947260065     -159.211266
9.462                0.947215234     -159.502209
9.463                0.947170992     -159.793418
9.464                 0.94712734      -160.08489
9.465                0.947084283     -160.376621
9.466                0.947041822     -160.668608
9.467                0.946999962     -160.960848
9.468                0.946958706     -161.253338
9.469                0.946918057     -161.546073
9.47                 0.946878017      -161.83905
9.471                 0.94683859     -162.132267
9.472                0.946799779     -162.425719
9.473                0.946761587     -162.719403
9.474                0.946724016     -163.013315
9.475                 0.94668707     -163.307453
9.476                0.946650751     -163.601812
9.477                0.946615063     -163.896388
9.478                0.946580007     -164.191179
9.479                0.946545587      -164.48618
9.48                 0.946511805     -164.781388
9.481                0.946478665       -165.0768
9.482                0.946446167     -165.372411
9.483                0.946414316     -165.668219
9.484                0.946383114     -165.964218
9.485                0.946352562     -166.260406
9.486                0.946322664      -166.55678
9.487                0.946293421     -166.853334
9.488                0.946264837     -167.150066
9.489                0.946236913     -167.446971
9.49                 0.946209652     -167.744047
9.491                0.946183055     -168.041288
9.492                0.946157125     -168.338692
9.493                0.946131864     -168.636255
9.494                0.946107275     -168.933972
9.495                0.946083358      -169.23184
9.496                0.946060116     -169.529855
9.497                0.946037551     -169.828013
9.498                0.946015664     -170.126311
9.499                0.945994458     -170.424744
9.5                  0.945973934     -170.723309
9.501                0.945954094     -171.022001
9.502                 0.94593494     -171.320817
9.503                0.945916472     -171.619752
9.504                0.945898693     -171.918804
9.505                0.945881604     -172.217967
9.506                0.945865207     -172.517239
9.507                0.945849502     -172.816614
9.508                0.945834492      -173.11609
9.509                0.945820177     -173.415662
9.51                 0.945806559     -173.715325
9.511                0.945793638     -174.015077
9.512                0.945781417     -174.314913
9.513                0.945769895     -174.614829
9.514                0.945759074     -174.914821
9.515                0.945748956     -175.214885
9.516                 0.94573954     -175.515018
9.517                0.945730827     -175.815214
9.518                0.945722819      -176.11547
9.519                0.945715517     -176.415782
9.52                 0.945708919     -176.716146
9.521                0.945703029     -177.016558
9.522                0.945697845     -177.317014
9.523                0.945693369      -177.61751
9.524                  0.9456896     -177.918041
9.525                 0.94568654     -178.218604
9.526                0.945684189     -178.519194
9.527                0.945682546     -178.819808
9.528                0.945681612     -179.120441
9.529                0.945681388      -179.42109
9.53                 0.945681873      -179.72175
9.531                0.945683068      179.977583
9.532                0.945684971      179.676912
9.533                0.945687585      179.376243
9.534                0.945690907      179.075579
9.535                0.945694939      178.774923
9.536                0.945699679      178.474281
9.537                0.945705128      178.173656
9.538                0.945711285      177.873052
9.539                0.945718149      177.572474
9.54                 0.945725721      177.271925
9.541                   0.945734      176.971409
9.542                0.945742986      176.670931
9.543                0.945752676      176.370495
9.544                0.945763072      176.070104
9.545                0.945774172      175.769763
9.546                0.945785975      175.469476
9.547                0.945798481      175.169246
9.548                0.945811688      174.869079
9.549                0.945825597      174.568977
9.55                 0.945840204      174.268945
9.551                0.945855511      173.968987
9.552                0.945871515      173.669106
9.553                0.945888215      173.369308
9.554                0.945905611      173.069596
9.555                  0.9459237      172.769973
9.556                0.945942482      172.470445
9.557                0.945961955      172.171014
9.558                0.945982117      171.871685
9.559                0.946002968      171.572462
9.56                 0.946024505      171.273349
9.561                0.946046727       170.97435
9.562                0.946069633      170.675468
9.563                 0.94609322      170.376707
9.564                0.946117487      170.078073
9.565                0.946142433      169.779567
9.566                0.946168054      169.481195
9.567                 0.94619435       169.18296
9.568                0.946221318      168.884866
9.569                0.946248957      168.586918
9.57                 0.946277264      168.289117
9.571                0.946306237       167.99147
9.572                0.946335875      167.693979
9.573                0.946366174      167.396648
9.574                0.946397133      167.099481
9.575                0.946428749      166.802482
9.576                 0.94646102      166.505655
9.577                0.946493944      166.209003
9.578                0.946527519      165.912531
9.579                 0.94656174      165.616241
9.58                 0.946596608      165.320138
9.581                0.946632117      165.024225
9.582                0.946668267      164.728506
9.583                0.946705054      164.432985
9.584                0.946742476      164.137665
9.585                 0.94678053       163.84255
9.586                0.946819213      163.547644
9.587                0.946858523      163.252949
9.588                0.946898456      162.958471
9.589                0.946939009      162.664212
9.59                 0.946980181      162.370176
9.591                0.947021967      162.076367
9.592                0.947064364      161.782788
9.593                0.947107371      161.489442
9.594                0.947150983      161.196333
9.595                0.947195197      160.903465
9.596                 0.94724001      160.610841
9.597                 0.94728542      160.318464
9.598                0.947331422      160.026338
9.599                0.947378014      159.734466
9.6                  0.947425192      159.442852
9.601                0.947472953      159.151499