! TOUCHSTONE file generated by CST DESIGN STUDIO
! Date and time: Tue Feb  4 16:26:35 2025
! Project name: C:\Work\MatlabApps\UnitCellOptimizationMatlab\CST\unitcell.cst
! Tree item: Tasks\Sweep1\SPara1\S-Parameters
! Header version: 2024
! Port assignment regex: !\s*Touchstone port\s*([0-9]+)\s*=\s*(CST MWS port|CST DES external port|CST DES block port)\s*(.+)\s* \(\"(.*)\"\)(\s*mode\s*([0-9]+))?.*
! Touchstone port assignment:
! Touchstone port 1 = CST DES external port 1 ("")
# GHz S MA R 50
9                    0.844185721     -109.442939
9.001                0.843568695     -109.692162
9.002                0.842950109     -109.942172
9.003                0.842329977     -110.192971
9.004                0.841708311      -110.44456
9.005                0.841085125     -110.696941
9.006                0.840460432     -110.950117
9.007                0.839834246     -111.204088
9.008                0.839206582     -111.458857
9.009                0.838577453     -111.714425
9.01                 0.837946874     -111.970793
9.011                0.837314861     -112.227964
9.012                0.836681428     -112.485938
9.013                0.836046591     -112.744719
9.014                0.835410365     -113.004306
9.015                0.834772767     -113.264702
9.016                0.834133814     -113.525908
9.017                0.833493521     -113.787925
9.018                0.832851906     -114.050756
9.019                0.832208985     -114.314402
9.02                 0.831564777     -114.578863
9.021                  0.8309193     -114.844142
9.022                 0.83027257      -115.11024
9.023                0.829624607     -115.377159
9.024                0.828975429     -115.644899
9.025                0.828325056     -115.913462
9.026                0.827673506     -116.182849
9.027                  0.8270208     -116.453062
9.028                0.826366957     -116.724102
9.029                0.825711997      -116.99597
9.03                 0.825055941     -117.268667
9.031                0.824398809     -117.542195
9.032                0.823740624     -117.816555
9.033                0.823081406     -118.091747
9.034                0.822421176     -118.367774
9.035                0.821759958     -118.644635
9.036                0.821097773     -118.922333
9.037                0.820434645     -119.200868
9.038                0.819770596     -119.480241
9.039                0.819105649     -119.760453
9.04                 0.818439829     -120.041505
9.041                0.817773159     -120.323398
9.042                0.817105663     -120.606133
9.043                0.816437366     -120.889711
9.044                0.815768294     -121.174132
9.045                0.815098471     -121.459397
9.046                0.814427923     -121.745508
9.047                0.813756675     -122.032464
9.048                0.813084755     -122.320267
9.049                0.812412188     -122.608917
9.05                 0.811739002     -122.898414
9.051                0.811065224      -123.18876
9.052                0.810390881     -123.479955
9.053                0.809716001     -123.771999
9.054                0.809040612     -124.064892
9.055                0.808364743     -124.358636
9.056                0.807688423     -124.653231
9.057                0.807011681     -124.948676
9.058                0.806334546     -125.244973
9.059                0.805657048     -125.542122
9.06                 0.804979217     -125.840122
9.061                0.804301084     -126.138974
9.062                0.803622679     -126.438678
9.063                0.802944034     -126.739235
9.064                 0.80226518     -127.040644
9.065                0.801586149     -127.342905
9.066                0.800906972     -127.646018
9.067                0.800227683     -127.949984
9.068                0.799548313     -128.254801
9.069                0.798868896     -128.560471
9.07                 0.798189465     -128.866992
9.071                0.797510054     -129.174365
9.072                0.796830697     -129.482589
9.073                0.796151428     -129.791663
9.074                0.795472281     -130.101589
9.075                0.794793292     -130.412364
9.076                0.794114495     -130.723988
9.077                0.793435926     -131.036462
9.078                0.792757622     -131.349783
9.079                0.792079617     -131.663953
9.08                 0.791401948     -131.978969
9.081                0.790724652     -132.294832
9.082                0.790047767     -132.611539
9.083                0.789371328     -132.929092
9.084                0.788695374     -133.247488
9.085                0.788019943     -133.566726
9.086                0.787345072     -133.886806
9.087                  0.7866708     -134.207727
9.088                0.785997166     -134.529487
9.089                0.785324208     -134.852085
9.09                 0.784651966      -135.17552
9.091                0.783980479      -135.49979
9.092                0.783309787     -135.824895
9.093                 0.78263993     -136.150832
9.094                0.781970948     -136.477601
9.095                0.781302882     -136.805199
9.096                0.780635771     -137.133625
9.097                0.779969658     -137.462877
9.098                0.779304584     -137.792954
9.099                0.778640589     -138.123854
9.1                  0.777977715     -138.455574
9.101                0.777316005     -138.788114
9.102                0.776655501      -139.12147
9.103                0.775996244     -139.455642
9.104                0.775338278     -139.790626
9.105                0.774681644      -140.12642
9.106                0.774026387     -140.463023
9.107                0.773372548     -140.800431
9.108                0.772720172     -141.138643
9.109                0.772069301     -141.477656
9.11                 0.771419981     -141.817467
9.111                0.770772253     -142.158074
9.112                0.770126163     -142.499474
9.113                0.769481754     -142.841665
9.114                0.768839071     -143.184643
9.115                0.768198159     -143.528405
9.116                0.767559061      -143.87295
9.117                0.766921823     -144.218273
9.118                0.766286489     -144.564371
9.119                0.765653105     -144.911241
9.12                 0.765021715     -145.258881
9.121                0.764392365     -145.607286
9.122                  0.7637651     -145.956453
9.123                0.763139966     -146.306379
9.124                0.762517007      -146.65706
9.125                 0.76189627     -147.008493
9.126                  0.7612778     -147.360673
9.127                0.760661643     -147.713598
9.128                0.760047845     -148.067263
9.129                0.759436451     -148.421663
9.13                 0.758827507     -148.776796
9.131                0.758221059     -149.132657
9.132                0.757617154     -149.489242
9.133                0.757015836     -149.846546
9.134                0.756417152     -150.204566
9.135                0.755821149     -150.563296
9.136                 0.75522787     -150.922733
9.137                0.754637364     -151.282871
9.138                0.754049675     -151.643707
9.139                 0.75346485     -152.005235
9.14                 0.752882933      -152.36745
9.141                0.752303972     -152.730348
9.142                0.751728011     -153.093924
9.143                0.751155097     -153.458172
9.144                0.750585275     -153.823088
9.145                 0.75001859     -154.188667
9.146                0.749455087     -154.554902
9.147                0.748894813     -154.921789
9.148                0.748337812     -155.289322
9.149                0.747784129     -155.657496
9.15                 0.747233809     -156.026305
9.151                0.746686897     -156.395743
9.152                0.746143437     -156.765805
9.153                0.745603475     -157.136484
9.154                0.745067054     -157.507776
9.155                0.744534217     -157.879673
9.156                0.744005011      -158.25217
9.157                0.743479477     -158.625261
9.158                 0.74295766     -158.998939
9.159                0.742439602     -159.373198
9.16                 0.741925348     -159.748032
9.161                0.741414939     -160.123434
9.162                0.740908418     -160.499398
9.163                0.740405828     -160.875917
9.164                0.739907211     -161.252984
9.165                0.739412608     -161.630592
9.166                0.738922062     -162.008736
9.167                0.738435612     -162.387407
9.168                0.737953301     -162.766599
9.169                0.737475168     -163.146305
9.17                 0.737001255     -163.526517
9.171                0.736531601     -163.907229
9.172                0.736066245     -164.288433
9.173                0.735605228     -164.670122
9.174                0.735148587     -165.052287
9.175                0.734696361     -165.434923
9.176                 0.73424859     -165.818021
9.177                0.733805309     -166.201574
9.178                0.733366557     -166.585573
9.179                0.732932371     -166.970012
9.18                 0.732502788     -167.354882
9.181                0.732077842     -167.740175
9.182                0.731657571     -168.125884
9.183                0.731242009        -168.512
9.184                0.730831192     -168.898515
9.185                0.730425153     -169.285421
9.186                0.730023926     -169.672711
9.187                0.729627546     -170.060375
9.188                0.729236044     -170.448405
9.189                0.728849454     -170.836793
9.19                 0.728467807     -171.225531
9.191                0.728091134     -171.614609
9.192                0.727719468      -172.00402
9.193                0.727352837     -172.393754
9.194                0.726991272     -172.783804
9.195                0.726634803      -173.17416
9.196                0.726283458     -173.564813
9.197                0.725937265     -173.955755
9.198                0.725596252     -174.346977
9.199                0.725260446      -174.73847
9.2                  0.724929874     -175.130225
9.201                0.724604562     -175.522232
9.202                0.724284535     -175.914484
9.203                0.723969817      -176.30697
9.204                0.723660434     -176.699682
9.205                0.723356408      -177.09261
9.206                0.723057763     -177.485746
9.207                0.722764521     -177.879079
9.208                0.722476704     -178.272601
9.209                0.722194333     -178.666303
9.21                 0.721917427     -179.060174
9.211                0.721646009     -179.454206
9.212                0.721380095     -179.848389
9.213                0.721119706      179.757286
9.214                0.720864858      179.362829
9.215                 0.72061557      178.968249
9.216                0.720371857      178.573556
9.217                0.720133736       178.17876
9.218                0.719901222      177.783869
9.219                0.719674329      177.388894
9.22                 0.719453072      176.993843
9.221                0.719237464      176.598728
9.222                0.719027518      176.203557
9.223                0.718823244       175.80834
9.224                0.718624655      175.413087
9.225                0.718431761      175.017807
9.226                0.718244572       174.62251
9.227                0.718063096      174.227206
9.228                0.717887344      173.831905
9.229                0.717717321      173.436615
9.23                 0.717553036      173.041348
9.231                0.717394495      172.646112
9.232                0.717241703      172.250917
9.233                0.717094665      171.855773
9.234                0.716953387       171.46069
9.235                 0.71681787      171.065677
9.236                0.716688119      170.670744
9.237                0.716564135      170.275901
9.238                0.716445921      169.881157
9.239                0.716333476      169.486522
9.24                 0.716226801      169.092006
9.241                0.716125896      168.697618
9.242                0.716030759      168.303369
9.243                0.715941388      167.909266
9.244                0.715857781      167.515321
9.245                0.715779935      167.121542
9.246                0.715707845      166.727939
9.247                0.715641506      166.334522
9.248                0.715580914        165.9413
9.249                0.715526063      165.548282
9.25                 0.715476945      165.155479
9.251                0.715433554      164.762899
9.252                0.715395882      164.370551
9.253                0.715363919      163.978445
9.254                0.715337656      163.586591
9.255                0.715317084      163.194997
9.256                0.715302192      162.803674
9.257                0.715292969      162.412629
9.258                0.715289403      162.021872
9.259                 0.71529148      161.631412
9.26                 0.715299189      161.241258
9.261                0.715312515       160.85142
9.262                0.715331444      160.461905
9.263                 0.71535596      160.072724
9.264                0.715386049      159.683885
9.265                0.715421694      159.295396
9.266                0.715462878      158.907267
9.267                0.715509584      158.519506
9.268                0.715561793      158.132122
9.269                0.715619488      157.745124
9.27                 0.715682649      157.358519
9.271                0.715751256      156.972317
9.272                0.715825289      156.586526
9.273                0.715904727      156.201154
9.274                0.715989549       155.81621
9.275                0.716079733      155.431701
9.276                0.716175256      155.047637
9.277                0.716276096      154.664024
9.278                0.716382229      154.280872
9.279                0.716493631      153.898188
9.28                 0.716610278       153.51598
9.281                0.716732144      153.134256
9.282                0.716859204      152.753024
9.283                0.716991433      152.372291
9.284                0.717128803      151.992065
9.285                0.717271288      151.612354
9.286                0.717418861      151.233165
9.287                0.717571494      150.854505
9.288                0.717729158      150.476383
9.289                0.717891825      150.098805
9.29                 0.718059466      149.721778
9.291                0.718232052       149.34531
9.292                0.718409552      148.969408
9.293                0.718591937      148.594078
9.294                0.718779175      148.219328
9.295                0.718971235      147.845164
9.296                0.719168087      147.471593
9.297                0.719369699      147.098622
9.298                0.719576038      146.726258
9.299                0.719787072      146.354506
9.3                  0.720002768      145.983374
9.301                0.720223093      145.612867
9.302                0.720448013      145.242992
9.303                0.720677496      144.873756
9.304                0.720911506      144.505163
9.305                 0.72115001      144.137221
9.306                0.721392972      143.769936
9.307                0.721640359      143.403312
9.308                0.721892135      143.037356
9.309                0.722148264      142.672074
9.31                 0.722408711      142.307471
9.311                 0.72267344      141.943552
9.312                0.722942415      141.580324
9.313                0.723215599      141.217791
9.314                0.723492957      140.855959
9.315                0.723774451      140.494834
9.316                0.724060044      140.134419
9.317                0.724349699       139.77472
9.318                0.724643379      139.415743
9.319                0.724941046      139.057491
9.32                 0.725242664       138.69997
9.321                0.725548193      138.343184
9.322                0.725857596      137.987139
9.323                0.726170836      137.631838
9.324                0.726487873      137.277286
9.325                 0.72680867      136.923488
9.326                0.727133187      136.570447
9.327                0.727461388      136.218167
9.328                0.727793232      135.866654
9.329                0.728128681      135.515911
9.33                 0.728467697      135.165942
9.331                0.728810241       134.81675
9.332                0.729156273       134.46834
9.333                0.729505755      134.120715
9.334                0.729858647       133.77388
9.335                0.730214911      133.427836
9.336                0.730574508      133.082589
9.337                0.730937397       132.73814
9.338                0.731303541      132.394495
9.339                  0.7316729      132.051655
9.34                 0.732045435      131.709624
9.341                0.732421106      131.368405
9.342                0.732799875      131.028001
9.343                0.733181702      130.688415
9.344                0.733566548      130.349649
9.345                0.733954374      130.011707
9.346                0.734345141      129.674591
9.347                 0.73473881      129.338304
9.348                0.735135342      129.002848
9.349                0.735534697      128.668226
9.35                 0.735936838       128.33444
9.351                0.736341725      128.001492
9.352                 0.73674932      127.669385
9.353                0.737159584       127.33812
9.354                0.737572477        127.0077
9.355                0.737987963      126.678128
9.356                0.738406002      126.349404
9.357                0.738826556       126.02153
9.358                0.739249586      125.694509
9.359                0.739675056      125.368343
9.36                 0.740102926      125.043032
9.361                0.740533159      124.718578
9.362                0.740965717      124.394984
9.363                0.741400562       124.07225
9.364                0.741837657      123.750377
9.365                0.742276965      123.429368
9.366                0.742718449      123.109223
9.367                 0.74316207      122.789944
9.368                0.743607793      122.471531
9.369                0.744055581      122.153986
9.37                 0.744505396       121.83731
9.371                0.744957204      121.521504
9.372                0.745410966      121.206568
9.373                0.745866648      120.892504
9.374                0.746324212      120.579311
9.375                0.746783625      120.266992
9.376                0.747244849      119.955546
9.377                0.747707849      119.644974
9.378                0.748172591      119.335277
9.379                0.748639039      119.026455
9.38                 0.749107159      118.718509
9.381                0.749576915      118.411438
9.382                0.750048273      118.105243
9.383                0.750521199      117.799925
9.384                 0.75099566      117.495484
9.385                0.751471621      117.191919
9.386                0.751949048      116.889231
9.387                0.752427908       116.58742
9.388                0.752908168      116.286486
9.389                0.753389796      115.986428
9.39                 0.753872757      115.687248
9.391                 0.75435702      115.388944
9.392                0.754842553      115.091516
9.393                0.755329322      114.794964
9.394                0.755817298      114.499288
9.395                0.756306446      114.204487
9.396                0.756796738      113.910562
9.397                 0.75728814      113.617511
9.398                0.757780622      113.325334
9.399                0.758274154      113.034031
9.4                  0.758768705      112.743601
9.401                0.759264245      112.454043
9.402                0.759760743      112.165357
9.403                 0.76025817      111.877542
9.404                0.760756497      111.590597
9.405                0.761255694      111.304522
9.406                0.761755732      111.019315
9.407                0.762256582      110.734977
9.408                0.762758216      110.451505
9.409                0.763260605        110.1689
9.41                 0.763763721      109.887159
9.411                0.764267537      109.606283
9.412                0.764772025       109.32627
9.413                0.765277158      109.047119
9.414                0.765782908      108.768829
9.415                0.766289248      108.491398
9.416                0.766796153      108.214827
9.417                0.767303595      107.939112
9.418                0.767811549      107.664254
9.419                0.768319989      107.390251
9.42                 0.768828889      107.117101
9.421                0.769338223      106.844804
9.422                0.769847967      106.573357
9.423                0.770358096       106.30276
9.424                0.770868585      106.033012
9.425                 0.77137941       105.76411
9.426                0.771890547      105.496053
9.427                0.772401971       105.22884
9.428                 0.77291366      104.962469
9.429                0.773425589      104.696939
9.43                 0.773937736      104.432248
9.431                0.774450078      104.168395
9.432                0.774962592      103.905377
9.433                0.775475256      103.643194
9.434                0.775988047      103.381843
9.435                0.776500944      103.121323
9.436                0.777013925      102.861633
9.437                0.777526968       102.60277
9.438                0.778040053      102.344732
9.439                0.778553158      102.087519
9.44                 0.779066263      101.831127
9.441                0.779579347      101.575556
9.442                0.780092391      101.320804
9.443                0.780605373      101.066868
9.444                0.781118274      100.813747
9.445                0.781631075      100.561439
9.446                0.782143757      100.309942
9.447                0.782656299      100.059254
9.448                0.783168685      99.8093725
9.449                0.783680894      99.5602966
9.45                 0.784192909      99.3120239
9.451                0.784704711      99.0645524
9.452                0.785216283      98.8178801
9.453                0.785727606       98.572005
9.454                0.786238664       98.326925
9.455                0.786749439      98.0826381
9.456                0.787259915      97.8391423
9.457                0.787770073      97.5964354
9.458                0.788279898      97.3545154
9.459                0.788789374      97.1133802
9.46                 0.789298484      96.8730277
9.461                0.789807212      96.6334557
9.462                0.790315543      96.3946622
9.463                0.790823461      96.1566449
9.464                0.791330951      95.9194018
9.465                0.791837997      95.6829306
9.466                0.792344586      95.4472292
9.467                0.792850702      95.2122954
9.468                0.793356331       94.978127
9.469                0.793861458      94.7447219
9.47                  0.79436607      94.5120777
9.471                0.794870153      94.2801923
9.472                0.795373693      94.0490635
9.473                0.795876677       93.818689
9.474                0.796379091      93.5890666
9.475                0.796880922       93.360194
9.476                0.797382158      93.1320691
9.477                0.797882786      92.9046894
9.478                0.798382794      92.6780528
9.479                0.798882169      92.4521569
9.48                 0.799380899      92.2269996
9.481                0.799878972      92.0025785
9.482                0.800376377      91.7788912
9.483                0.800873102      91.5559357
9.484                0.801369136      91.3337094
9.485                0.801864467      91.1122102
9.486                0.802359085      90.8914357
9.487                0.802852979      90.6713836
9.488                0.803346138      90.4520516
9.489                0.803838551      90.2334374
9.49                  0.80433021      90.0155387
9.491                0.804821102       89.798353
9.492                 0.80531122      89.5818782
9.493                0.805800552      89.3661118
9.494                0.806289089      89.1510516
9.495                0.806776822      88.9366952
9.496                0.807263742      88.7230403
9.497                0.807749839      88.5100845
9.498                0.808235104      88.2978254
9.499                 0.80871953      88.0862609
9.5                  0.809203106      87.8753884
9.501                0.809685825      87.6652058
9.502                0.810167679      87.4557105
9.503                0.810648659      87.2469004
9.504                0.811128757       87.038773
9.505                0.811607965       86.831326
9.506                0.812086277       86.624557
9.507                0.812563683      86.4184638
9.508                0.813040178      86.2130439
9.509                0.813515753      86.0082951
9.51                 0.813990402      85.8042149
9.511                0.814464117      85.6008011
9.512                0.814936892      85.3980513
9.513                 0.81540872      85.1959632
9.514                0.815879595      84.9945344
9.515                0.816349509      84.7937626
9.516                0.816818458      84.5936455
9.517                0.817286434      84.3941807
9.518                0.817753432      84.1953659
9.519                0.818219446      83.9971988
9.52                  0.81868447      83.7996771
9.521                0.819148499      83.6027983
9.522                0.819611527      83.4065603
9.523                0.820073548      83.2109606
9.524                0.820534558      83.0159971
9.525                0.820994551      82.8216673
9.526                0.821453522      82.6279689
9.527                0.821911467      82.4348997
9.528                0.822368381      82.2424573
9.529                0.822824259      82.0506394
9.53                 0.823279096      81.8594438
9.531                0.823732888      81.6688682
9.532                0.824185631      81.4789102
9.533                0.824637321      81.2895676
9.534                0.825087954       81.100838
9.535                0.825537525      80.9127193
9.536                0.825986031      80.7252091
9.537                0.826433468      80.5383052
9.538                0.826879833      80.3520053
9.539                0.827325121      80.1663071
9.54                  0.82776933      79.9812084
9.541                0.828212455       79.796707
9.542                0.828654495      79.6128005
9.543                0.829095445      79.4294867
9.544                0.829535303      79.2467635
9.545                0.829974066      79.0646285
9.546                0.830411731      78.8830795
9.547                0.830848295      78.7021144
9.548                0.831283755      78.5217308
9.549                0.831718109      78.3419267
9.55                 0.832151355      78.1626996
9.551                0.832583489      77.9840476
9.552                0.833014511      77.8059683
9.553                0.833444417      77.6284595
9.554                0.833873205      77.4515192
9.555                0.834300874       77.275145
9.556                0.834727421      77.0993348
9.557                0.835152845      76.9240865
9.558                0.835577143      76.7493979
9.559                0.836000314      76.5752667
9.56                 0.836422357       76.401691
9.561                 0.83684327      76.2286684
9.562                0.837263051      76.0561969
9.563                0.837681699      75.8842744
9.564                0.838099213      75.7128986
9.565                0.838515591      75.5420675
9.566                0.838930832      75.3717789
9.567                0.839344935      75.2020308
9.568                  0.8397579       75.032821
9.569                0.840169724      74.8641474
9.57                 0.840580408       74.696008
9.571                 0.84098995      74.5284006
9.572                 0.84139835      74.3613231
9.573                0.841805607      74.1947735
9.574                 0.84221172      74.0287497
9.575                0.842616688      73.8632497
9.576                0.843020512      73.6982713
9.577                0.843423191      73.5338125
9.578                0.843824724      73.3698714
9.579                0.844225112      73.2064457
9.58                 0.844624353      73.0435336
9.581                0.845022447       72.881133
9.582                0.845419396      72.7192418
9.583                0.845815197       72.557858
9.584                0.846209853      72.3969797
9.585                0.846603361      72.2366048
9.586                0.846995723      72.0767314
9.587                0.847386939      71.9173574
9.588                0.847777009      71.7584809
9.589                0.848165932      71.6000999
9.59                  0.84855371      71.4422124
9.591                0.848940343      71.2848164
9.592                0.849325831      71.1279101
9.593                0.849710175      70.9714914
9.594                0.850093374      70.8155585
9.595                0.850475431      70.6601094
9.596                0.850856344      70.5051421
9.597                0.851236115      70.3506547
9.598                0.851614745      70.1966453
9.599                0.851992234      70.0431121
9.6                  0.852368584      69.8900531
9.601                0.852743793      69.7374664