! TOUCHSTONE file generated by CST DESIGN STUDIO
! Date and time: Tue Feb  4 14:14:39 2025
! Project name: C:\Work\MatlabApps\UnitCellOptimizationMatlab\CST\unitcell.cst
! Tree item: Tasks\Sweep1\SPara1\S-Parameters
! Header version: 2024
! Port assignment regex: !\s*Touchstone port\s*([0-9]+)\s*=\s*(CST MWS port|CST DES external port|CST DES block port)\s*(.+)\s* \(\"(.*)\"\)(\s*mode\s*([0-9]+))?.*
! Touchstone port assignment:
! Touchstone port 1 = CST DES external port 1 ("")
# GHz S MA R 50
9                    0.990327939     -72.6836735
9.001                0.990306073     -72.7897553
9.002                0.990284142      -72.896091
9.003                0.990262145     -73.0026814
9.004                0.990240083     -73.1095272
9.005                0.990217956     -73.2166293
9.006                0.990195763     -73.3239883
9.007                0.990173504      -73.431605
9.008                0.990151179     -73.5394802
9.009                0.990128788     -73.6476147
9.01                 0.990106331     -73.7560092
9.011                0.990083807     -73.8646645
9.012                0.990061217     -73.9735814
9.013                 0.99003856     -74.0827606
9.014                0.990015836     -74.1922029
9.015                0.989993045     -74.3019091
9.016                0.989970186       -74.41188
9.017                0.989947261     -74.5221164
9.018                0.989924267      -74.632619
9.019                0.989901206     -74.7433886
9.02                 0.989878078      -74.854426
9.021                0.989854881     -74.9657321
9.022                0.989831616     -75.0773075
9.023                0.989808282     -75.1891532
9.024                0.989784881     -75.3012698
9.025                 0.98976141     -75.4136582
9.026                0.989737871     -75.5263192
9.027                0.989714263     -75.6392536
9.028                0.989690586     -75.7524622
9.029                 0.98966684     -75.8659458
9.03                 0.989643024     -75.9797051
9.031                0.989619139     -76.0937411
9.032                0.989595184     -76.2080545
9.033                0.989571159     -76.3226462
9.034                0.989547065     -76.4375168
9.035                  0.9895229     -76.5526674
9.036                0.989498665     -76.6680986
9.037                0.989474359     -76.7838114
9.038                0.989449984     -76.8998064
9.039                0.989425537     -77.0160846
9.04                  0.98940102     -77.1326468
9.041                0.989376431     -77.2494938
9.042                0.989351772     -77.3666264
9.043                0.989327041     -77.4840455
9.044                0.989302239     -77.6017519
9.045                0.989277366     -77.7197464
9.046                 0.98925242     -77.8380299
9.047                0.989227403     -77.9566031
9.048                0.989202314     -78.0754671
9.049                0.989177153     -78.1946225
9.05                  0.98915192     -78.3140702
9.051                0.989126615     -78.4338111
9.052                0.989101237     -78.5538461
9.053                0.989075786     -78.6741759
9.054                0.989050263     -78.7948014
9.055                0.989024666     -78.9157235
9.056                0.988998997      -79.036943
9.057                0.988973255     -79.1584608
9.058                0.988947439     -79.2802778
9.059                 0.98892155     -79.4023947
9.06                 0.988895588     -79.5248125
9.061                0.988869552     -79.6475321
9.062                0.988843442     -79.7705542
9.063                0.988817258     -79.8938797
9.064                0.988791001     -80.0175096
9.065                0.988764669     -80.1414447
9.066                0.988738263     -80.2656858
9.067                0.988711783     -80.3902339
9.068                0.988685228     -80.5150897
9.069                0.988658599     -80.6402542
9.07                 0.988631895     -80.7657283
9.071                0.988605116     -80.8915128
9.072                0.988578262     -81.0176086
9.073                0.988551333     -81.1440167
9.074                0.988524329     -81.2707377
9.075                 0.98849725     -81.3977728
9.076                0.988470096     -81.5251227
9.077                0.988442866     -81.6527883
9.078                0.988415561     -81.7807705
9.079                0.988388179     -81.9090702
9.08                 0.988360723     -82.0376884
9.081                 0.98833319     -82.1666258
9.082                0.988305581     -82.2958834
9.083                0.988277897     -82.4254621
9.084                0.988250136     -82.5553627
9.085                0.988222299     -82.6855862
9.086                0.988194386     -82.8161335
9.087                0.988166396     -82.9470055
9.088                 0.98813833      -83.078203
9.089                0.988110187     -83.2097271
9.09                 0.988081967     -83.3415785
9.091                0.988053671     -83.4737581
9.092                0.988025298      -83.606267
9.093                0.987996848      -83.739106
9.094                0.987968321     -83.8722759
9.095                0.987939717     -84.0057778
9.096                0.987911036     -84.1396125
9.097                0.987882278      -84.273781
9.098                0.987853443     -84.4082841
9.099                 0.98782453     -84.5431228
9.1                   0.98779554     -84.6782979
9.101                0.987766472     -84.8138105
9.102                0.987737327     -84.9496613
9.103                0.987708104     -85.0858514
9.104                0.987678804     -85.2223817
9.105                0.987649425      -85.359253
9.106                 0.98761997     -85.4964663
9.107                0.987590436     -85.6340225
9.108                0.987560825     -85.7719225
9.109                0.987531135     -85.9101673
9.11                 0.987501368     -86.0487578
9.111                0.987471523     -86.1876949
9.112                  0.9874416     -86.3269795
9.113                0.987411598     -86.4666125
9.114                0.987381519      -86.606595
9.115                0.987351362     -86.7469277
9.116                0.987321126     -86.8876117
9.117                0.987290812     -87.0286479
9.118                 0.98726042     -87.1700371
9.119                 0.98722995     -87.3117804
9.12                 0.987199402     -87.4538786
9.121                0.987168776     -87.5963327
9.122                0.987138071     -87.7391437
9.123                0.987107288     -87.8823123
9.124                0.987076426     -88.0258397
9.125                0.987045487     -88.1697266
9.126                0.987014469     -88.3139741
9.127                0.986983373     -88.4585831
9.128                0.986952199     -88.6035545
9.129                0.986920946     -88.7488892
9.13                 0.986889615     -88.8945882
9.131                0.986858206     -89.0406524
9.132                0.986826719     -89.1870827
9.133                0.986795153     -89.3338801
9.134                 0.98676351     -89.4810456
9.135                0.986731788     -89.6285799
9.136                0.986699988     -89.7764842
9.137                 0.98666811     -89.9247592
9.138                0.986636154      -90.073406
9.139                 0.98660412     -90.2224254
9.14                 0.986572008     -90.3718185
9.141                0.986539818     -90.5215861
9.142                 0.98650755     -90.6717292
9.143                0.986475205     -90.8222487
9.144                0.986442781     -90.9731455
9.145                 0.98641028     -91.1244206
9.146                0.986377702     -91.2760749
9.147                0.986345045     -91.4281093
9.148                0.986312312     -91.5805248
9.149                0.986279501     -91.7333222
9.15                 0.986246612     -91.8865026
9.151                0.986213646     -92.0400669
9.152                0.986180603     -92.1940159
9.153                0.986147483     -92.3483506
9.154                0.986114287     -92.5030719
9.155                0.986081013     -92.6581808
9.156                0.986047662     -92.8136782
9.157                0.986014235      -92.969565
9.158                0.985980731     -93.1258421
9.159                0.985947151     -93.2825105
9.16                 0.985913494      -93.439571
9.161                0.985879761     -93.5970246
9.162                0.985845952     -93.7548723
9.163                0.985812067     -93.9131148
9.164                0.985778107     -94.0717532
9.165                 0.98574407     -94.2307884
9.166                0.985709959     -94.3902212
9.167                0.985675771     -94.5500526
9.168                0.985641509     -94.7102834
9.169                0.985607171     -94.8709147
9.17                 0.985572759     -95.0319473
9.171                0.985538272     -95.1933821
9.172                 0.98550371     -95.3552201
9.173                0.985469074      -95.517462
9.174                0.985434364     -95.6801089
9.175                 0.98539958     -95.8431616
9.176                0.985364722      -96.006621
9.177                0.985329791      -96.170488
9.178                0.985294786     -96.3347636
9.179                0.985259708     -96.4994485
9.18                 0.985224557     -96.6645437
9.181                0.985189333     -96.8300501
9.182                0.985154037     -96.9959685
9.183                0.985118668     -97.1622999
9.184                0.985083227     -97.3290451
9.185                0.985047715      -97.496205
9.186                0.985012131     -97.6637805
9.187                0.984976475     -97.8317724
9.188                0.984940749     -98.0001817
9.189                0.984904952     -98.1690091
9.19                 0.984869084     -98.3382556
9.191                0.984833146     -98.5079219
9.192                0.984797138     -98.6780091
9.193                0.984761061     -98.8485179
9.194                0.984724914     -99.0194491
9.195                0.984688698     -99.1908037
9.196                0.984652413     -99.3625824
9.197                 0.98461606     -99.5347861
9.198                0.984579638     -99.7074157
9.199                0.984543149      -99.880472
9.2                  0.984506592     -100.053956
9.201                0.984469968     -100.227868
9.202                0.984433278     -100.402209
9.203                 0.98439652     -100.576981
9.204                0.984359697     -100.752183
9.205                0.984322808     -100.927817
9.206                0.984285854     -101.103883
9.207                0.984248834     -101.280382
9.208                 0.98421175     -101.457316
9.209                0.984174602     -101.634684
9.21                  0.98413739     -101.812488
9.211                0.984100114     -101.990729
9.212                0.984062776     -102.169407
9.213                0.984025375     -102.348522
9.214                0.983987911     -102.528077
9.215                0.983950386     -102.708071
9.216                  0.9839128     -102.888505
9.217                0.983875153     -103.069381
9.218                0.983837445     -103.250698
9.219                0.983799677     -103.432458
9.22                  0.98376185     -103.614661
9.221                0.983723964     -103.797309
9.222                0.983686019     -103.980401
9.223                0.983648016     -104.163939
9.224                0.983609956     -104.347923
9.225                0.983571839     -104.532354
9.226                0.983533665     -104.717233
9.227                0.983495435      -104.90256
9.228                0.983457149     -105.088336
9.229                0.983418809     -105.274562
9.23                 0.983380414     -105.461239
9.231                0.983341966     -105.648367
9.232                0.983303464     -105.835947
9.233                0.983264909     -106.023979
9.234                0.983226302     -106.212465
9.235                0.983187644     -106.401405
9.236                0.983148934     -106.590799
9.237                0.983110174     -106.780648
9.238                0.983071365     -106.970953
9.239                0.983032506     -107.161715
9.24                 0.982993598     -107.352934
9.241                0.982954643      -107.54461
9.242                0.982915641     -107.736745
9.243                0.982876591     -107.929339
9.244                0.982837496     -108.122393
9.245                0.982798356     -108.315906
9.246                0.982759171     -108.509881
9.247                0.982719942     -108.704316
9.248                 0.98268067     -108.899214
9.249                0.982641355     -109.094574
9.25                 0.982601998     -109.290397
9.251                  0.9825626     -109.486684
9.252                0.982523162     -109.683434
9.253                0.982483684      -109.88065
9.254                0.982444168      -110.07833
9.255                0.982404613     -110.276476
9.256                0.982365021     -110.475089
9.257                0.982325392     -110.674168
9.258                0.982285727     -110.873714
9.259                0.982246027     -111.073728
9.26                 0.982206293     -111.274209
9.261                0.982166526      -111.47516
9.262                0.982126726     -111.676579
9.263                0.982086894     -111.878468
9.264                0.982047031     -112.080827
9.265                0.982007138     -112.283656
9.266                0.981967216     -112.486956
9.267                0.981927265     -112.690727
9.268                0.981887287      -112.89497
9.269                0.981847283     -113.099684
9.27                 0.981807252     -113.304871
9.271                0.981767197     -113.510531
9.272                0.981727118     -113.716663
9.273                0.981687016     -113.923269
9.274                0.981646892     -114.130348
9.275                0.981606746     -114.337902
9.276                0.981566581      -114.54593
9.277                0.981526396     -114.754432
9.278                0.981486194      -114.96341
9.279                0.981445974     -115.172863
9.28                 0.981405737     -115.382791
9.281                0.981365486     -115.593195
9.282                 0.98132522     -115.804074
9.283                0.981284941      -116.01543
9.284                 0.98124465     -116.227263
9.285                0.981204348     -116.439572
9.286                0.981164036     -116.652358
9.287                0.981123714     -116.865621
9.288                0.981083385     -117.079361
9.289                0.981043049     -117.293579
9.29                 0.981002707     -117.508274
9.291                0.980962361     -117.723446
9.292                 0.98092201     -117.939097
9.293                0.980881658     -118.155225
9.294                0.980841304     -118.371832
9.295                 0.98080095     -118.588916
9.296                0.980760597     -118.806479
9.297                0.980720246     -119.024519
9.298                0.980679899     -119.243038
9.299                0.980639556     -119.462036
9.3                  0.980599219     -119.681511
9.301                0.980558888     -119.901465
9.302                0.980518566     -120.121898
9.303                0.980478253     -120.342808
9.304                0.980437951     -120.564197
9.305                 0.98039766     -120.786064
9.306                0.980357383     -121.008409
9.307                 0.98031712     -121.231232
9.308                0.980276873     -121.454533
9.309                0.980236642     -121.678312
9.31                  0.98019643     -121.902569
9.311                0.980156237     -122.127303
9.312                0.980116065     -122.352515
9.313                0.980075915     -122.578203
9.314                0.980035789     -122.804369
9.315                0.979995687     -123.031012
9.316                0.979955612     -123.258132
9.317                0.979915564     -123.485728
9.318                0.979875545       -123.7138
9.319                0.979835556     -123.942348
9.32                 0.979795599     -124.171372
9.321                0.979755675     -124.400871
9.322                0.979715785     -124.630845
9.323                0.979675931     -124.861294
9.324                0.979636115     -125.092217
9.325                0.979596338     -125.323614
9.326                  0.9795566     -125.555485
9.327                0.979516905     -125.787829
9.328                0.979477252     -126.020646
9.329                0.979437644     -126.253935
9.33                 0.979398083     -126.487696
9.331                0.979358569     -126.721929
9.332                0.979319103     -126.956633
9.333                0.979279689     -127.191807
9.334                0.979240327     -127.427451
9.335                0.979201018     -127.663565
9.336                0.979161765     -127.900148
9.337                0.979122568     -128.137199
9.338                 0.97908343     -128.374717
9.339                0.979044352     -128.612703
9.34                 0.979005335     -128.851156
9.341                0.978966381     -129.090074
9.342                0.978927492     -129.329458
9.343                0.978888669     -129.569306
9.344                0.978849914     -129.809618
9.345                0.978811228     -130.050393
9.346                0.978772614      -130.29163
9.347                0.978734072     -130.533329
9.348                0.978695605     -130.775489
9.349                0.978657213      -131.01811
9.35                 0.978618899     -131.261189
9.351                0.978580665     -131.504727
9.352                0.978542512     -131.748722
9.353                0.978504441     -131.993174
9.354                0.978466455     -132.238082
9.355                0.978428555     -132.483445
9.356                0.978390742     -132.729262
9.357                0.978353019     -132.975532
9.358                0.978315387     -133.222254
9.359                0.978277848     -133.469427
9.36                 0.978240404      -133.71705
9.361                0.978203056     -133.965123
9.362                0.978165806     -134.213643
9.363                0.978128656      -134.46261
9.364                0.978091608     -134.712023
9.365                0.978054663     -134.961881
9.366                0.978017823     -135.212182
9.367                 0.97798109     -135.462926
9.368                0.977944466     -135.714111
9.369                0.977907952     -135.965736
9.37                 0.977871551       -136.2178
9.371                0.977835263     -136.470301
9.372                0.977799091     -136.723239
9.373                0.977763037     -136.976612
9.374                0.977727102     -137.230419
9.375                0.977691289     -137.484658
9.376                0.977655599     -137.739328
9.377                0.977620033     -137.994428
9.378                0.977584594     -138.249956
9.379                0.977549284     -138.505912
9.38                 0.977514104     -138.762293
9.381                0.977479056     -139.019097
9.382                0.977444142     -139.276325
9.383                0.977409364     -139.533974
9.384                0.977374723     -139.792042
9.385                0.977340222     -140.050528
9.386                0.977305863     -140.309431
9.387                0.977271646     -140.568748
9.388                0.977237575     -140.828479
9.389                0.977203651     -141.088622
9.39                 0.977169875     -141.349175
9.391                 0.97713625     -141.610136
9.392                0.977102778     -141.871503
9.393                0.977069459     -142.133276
9.394                0.977036297     -142.395452
9.395                0.977003293     -142.658029
9.396                0.976970449     -142.921006
9.397                0.976937767     -143.184381
9.398                0.976905248     -143.448152
9.399                0.976872895     -143.712317
9.4                  0.976840709     -143.976875
9.401                0.976808693     -144.241823
9.402                0.976776847     -144.507159
9.403                0.976745174     -144.772882
9.404                0.976713676      -145.03899
9.405                0.976682355     -145.305481
9.406                0.976651212     -145.572352
9.407                 0.97662025     -145.839602
9.408                 0.97658947     -146.107228
9.409                0.976558873     -146.375229
9.41                 0.976528463     -146.643602
9.411                 0.97649824     -146.912346
9.412                0.976468207     -147.181458
9.413                0.976438365     -147.450936
9.414                0.976408716     -147.720778
9.415                0.976379263     -147.990982
9.416                0.976350006     -148.261545
9.417                0.976320948     -148.532465
9.418                 0.97629209      -148.80374
9.419                0.976263435     -149.075368
9.42                 0.976234984     -149.347347
9.421                0.976206739     -149.619673
9.422                0.976178701     -149.892345
9.423                0.976150873      -150.16536
9.424                0.976123256     -150.438716
9.425                0.976095852     -150.712411
9.426                0.976068663     -150.986442
9.427                0.976041691     -151.260806
9.428                0.976014936     -151.535502
9.429                0.975988402     -151.810526
9.43                  0.97596209     -152.085876
9.431                0.975936001      -152.36155
9.432                0.975910138     -152.637545
9.433                0.975884501     -152.913859
9.434                0.975859094     -153.190488
9.435                0.975833916      -153.46743
9.436                0.975808971     -153.744683
9.437                0.975784259     -154.022244
9.438                0.975759783      -154.30011
9.439                0.975735544     -154.578278
9.44                 0.975711543     -154.856747
9.441                0.975687783     -155.135512
9.442                0.975664266     -155.414572
9.443                0.975640991     -155.693923
9.444                0.975617962     -155.973563
9.445                 0.97559518     -156.253488
9.446                0.975572646     -156.533697
9.447                0.975550362     -156.814186
9.448                 0.97552833     -157.094952
9.449                0.975506551     -157.375993
9.45                 0.975485026     -157.657304
9.451                0.975463758     -157.938885
9.452                0.975442747     -158.220731
9.453                0.975421996      -158.50284
9.454                0.975401505     -158.785208
9.455                0.975381276     -159.067833
9.456                0.975361311     -159.350711
9.457                0.975341611      -159.63384
9.458                0.975322177     -159.917216
9.459                0.975303011     -160.200837
9.46                 0.975284115     -160.484699
9.461                0.975265489     -160.768799
9.462                0.975247135     -161.053134
9.463                0.975229055     -161.337701
9.464                0.975211249     -161.622497
9.465                0.975193719     -161.907518
9.466                0.975176467     -162.192762
9.467                0.975159493     -162.478224
9.468                0.975142799     -162.763903
9.469                0.975126386     -163.049794
9.47                 0.975110256     -163.335895
9.471                0.975094409     -163.622202
9.472                0.975078847     -163.908711
9.473                0.975063571      -164.19542
9.474                0.975048582     -164.482326
9.475                0.975033882     -164.769424
9.476                 0.97501947     -165.056711
9.477                 0.97500535     -165.344185
9.478                0.974991521     -165.631842
9.479                0.974977984     -165.919678
9.48                 0.974964741      -166.20769
9.481                0.974951793     -166.495874
9.482                0.974939141     -166.784228
9.483                0.974926786     -167.072748
9.484                0.974914728     -167.361429
9.485                0.974902969      -167.65027
9.486                 0.97489151     -167.939266
9.487                0.974880351     -168.228413
9.488                0.974869493     -168.517709
9.489                0.974858938      -168.80715
9.49                 0.974848686     -169.096732
9.491                0.974838738     -169.386452
9.492                0.974829095     -169.676306
9.493                0.974819757     -169.966291
9.494                0.974810725     -170.256403
9.495                0.974802001     -170.546638
9.496                0.974793584     -170.836994
9.497                0.974785476     -171.127465
9.498                0.974777677      -171.41805
9.499                0.974770188     -171.708744
9.5                  0.974763009     -171.999543
9.501                0.974756141     -172.290444
9.502                0.974749585     -172.581443
9.503                 0.97474334     -172.872538
9.504                0.974737409     -173.163723
9.505                0.974731791     -173.454995
9.506                0.974726486     -173.746351
9.507                0.974721496     -174.037788
9.508                 0.97471682       -174.3293
9.509                0.974712459     -174.620885
9.51                 0.974708414      -174.91254
9.511                0.974704684     -175.204259
9.512                0.974701271      -175.49604
9.513                0.974698174      -175.78788
9.514                0.974695394     -176.079773
9.515                0.974692931     -176.371717
9.516                0.974690785     -176.663707
9.517                0.974688957     -176.955741
9.518                0.974687446     -177.247814
9.519                0.974686254     -177.539923
9.52                 0.974685379     -177.832063
9.521                0.974684823     -178.124232
9.522                0.974684585     -178.416426
9.523                0.974684666      -178.70864
9.524                0.974685064     -179.000871
9.525                0.974685782     -179.293115
9.526                0.974686818     -179.585369
9.527                0.974688172     -179.877628
9.528                0.974689845       179.83011
9.529                0.974691837       179.53785
9.53                 0.974694146      179.245595
9.531                0.974696774       178.95335
9.532                 0.97469972      178.661117
9.533                0.974702984      178.368901
9.534                0.974706566      178.076706
9.535                0.974710465      177.784534
9.536                0.974714682       177.49239
9.537                0.974719215      177.200278
9.538                0.974724066      176.908201
9.539                0.974729233      176.616163
9.54                 0.974734716      176.324168
9.541                0.974740514      176.032219
9.542                0.974746629       175.74032
9.543                0.974753058      175.448475
9.544                0.974759802      175.156688
9.545                 0.97476686      174.864961
9.546                0.974774232        174.5733
9.547                0.974781917      174.281707
9.548                0.974789914      173.990187
9.549                0.974798224      173.698743
9.55                 0.974806845      173.407378
9.551                0.974815778      173.116096
9.552                 0.97482502      172.824902
9.553                0.974834573      172.533798
9.554                0.974844435      172.242789
9.555                0.974854605      171.951877
9.556                0.974865083      171.661067
9.557                0.974875867      171.370362
9.558                0.974886959      171.079766
9.559                0.974898355      170.789282
9.56                 0.974910057      170.498914
9.561                0.974922062      170.208666
9.562                 0.97493437      169.918541
9.563                0.974946981      169.628543
9.564                0.974959893      169.338675
9.565                0.974973105      169.048941
9.566                0.974986617      168.759344
9.567                0.975000428      168.469888
9.568                0.975014536      168.180577
9.569                0.975028941      167.891414
9.57                 0.975043642      167.602402
9.571                0.975058637      167.313545
9.572                0.975073926      167.024846
9.573                0.975089507       166.73631
9.574                 0.97510538      166.447938
9.575                0.975121544      166.159736
9.576                0.975137996      165.871706
9.577                0.975154737      165.583851
9.578                0.975171765      165.296176
9.579                0.975189079      165.008682
9.58                 0.975206677      164.721375
9.581                0.975224558      164.434257
9.582                0.975242722      164.147331
9.583                0.975261167      163.860601
9.584                0.975279891      163.574071
9.585                0.975298894      163.287743
9.586                0.975318174       163.00162
9.587                 0.97533773      162.715707
9.588                 0.97535756      162.430006
9.589                0.975377663      162.144521
9.59                 0.975398038      161.859254
9.591                0.975418684      161.574209
9.592                0.975439598       161.28939
9.593                 0.97546078      161.004799
9.594                0.975482228      160.720439
9.595                 0.97550394      160.436314
9.596                0.975525916      160.152427
9.597                0.975548154      159.868781
9.598                0.975570652      159.585379
9.599                0.975593408      159.302225
9.6                  0.975616422       159.01932
9.601                0.975639692      158.736668