! TOUCHSTONE file generated by CST DESIGN STUDIO
! Date and time: Tue Feb  4 14:31:35 2025
! Project name: C:\Work\MatlabApps\UnitCellOptimizationMatlab\CST\unitcell.cst
! Tree item: Tasks\Sweep1\SPara1\S-Parameters
! Header version: 2024
! Port assignment regex: !\s*Touchstone port\s*([0-9]+)\s*=\s*(CST MWS port|CST DES external port|CST DES block port)\s*(.+)\s* \(\"(.*)\"\)(\s*mode\s*([0-9]+))?.*
! Touchstone port assignment:
! Touchstone port 1 = CST DES external port 1 ("")
# GHz S MA R 50
9                    0.972255887     -66.0812991
9.001                0.972192069      -66.176508
9.002                 0.97212806     -66.2719465
9.003                0.972063857     -66.3676155
9.004                0.971999461     -66.4635156
9.005                0.971934871     -66.5596476
9.006                0.971870086     -66.6560122
9.007                0.971805106     -66.7526102
9.008                 0.97173993     -66.8494423
9.009                0.971674558     -66.9465092
9.01                 0.971608989     -67.0438117
9.011                0.971543222     -67.1413506
9.012                0.971477257     -67.2391266
9.013                0.971411093     -67.3371404
9.014                 0.97134473     -67.4353928
9.015                0.971278167     -67.5338845
9.016                0.971211404     -67.6326164
9.017                0.971144439     -67.7315891
9.018                0.971077273     -67.8308035
9.019                0.971009904     -67.9302604
9.02                 0.970942333     -68.0299604
9.021                0.970874558     -68.1299043
9.022                0.970806579      -68.230093
9.023                0.970738395     -68.3305273
9.024                0.970670006     -68.4312078
9.025                0.970601411     -68.5321353
9.026                0.970532609     -68.6333108
9.027                0.970463601     -68.7347349
9.028                0.970394385     -68.8364084
9.029                 0.97032496     -68.9383321
9.03                 0.970255327     -69.0405069
9.031                0.970185484     -69.1429335
9.032                0.970115431     -69.2456127
9.033                0.970045167     -69.3485454
9.034                0.969974693     -69.4517323
9.035                0.969904006     -69.5551742
9.036                0.969833107     -69.6588719
9.037                0.969761995     -69.7628264
9.038                0.969690669     -69.8670383
9.039                0.969619129     -69.9715084
9.04                 0.969547374     -70.0762377
9.041                0.969475403      -70.181227
9.042                0.969403217      -70.286477
9.043                0.969330814     -70.3919886
9.044                0.969258193     -70.4977625
9.045                0.969185355     -70.6037998
9.046                0.969112298     -70.7101011
9.047                0.969039022     -70.8166674
9.048                0.968965527     -70.9234994
9.049                0.968891811      -71.030598
9.05                 0.968817875      -71.137964
9.051                0.968743717     -71.2455984
9.052                0.968669337     -71.3535019
9.053                0.968594735     -71.4616754
9.054                0.968519909     -71.5701198
9.055                0.968444859     -71.6788358
9.056                0.968369585     -71.7878244
9.057                0.968294086     -71.8970865
9.058                0.968218362     -72.0066229
9.059                0.968142411     -72.1164344
9.06                 0.968066233      -72.226522
9.061                0.967989828     -72.3368864
9.062                0.967913195     -72.4475287
9.063                0.967836334     -72.5584496
9.064                0.967759243     -72.6696501
9.065                0.967681923     -72.7811309
9.066                0.967604372     -72.8928931
9.067                0.967526591     -73.0049375
9.068                0.967448578      -73.117265
9.069                0.967370333     -73.2298764
9.07                 0.967291855     -73.3427727
9.071                0.967213144     -73.4559548
9.072                0.967134199     -73.5694236
9.073                 0.96705502     -73.6831799
9.074                0.966975606     -73.7972247
9.075                0.966895956     -73.9115589
9.076                 0.96681607     -74.0261834
9.077                0.966735948     -74.1410991
9.078                0.966655588     -74.2563069
9.079                 0.96657499     -74.3718078
9.08                 0.966494154     -74.4876026
9.081                 0.96641308     -74.6036923
9.082                0.966331765     -74.7200778
9.083                 0.96625021     -74.8367601
9.084                0.966168415       -74.95374
9.085                0.966086379     -75.0710185
9.086                0.966004101     -75.1885966
9.087                 0.96592158     -75.3064751
9.088                0.965838816      -75.424655
9.089                 0.96575581     -75.5431373
9.09                 0.965672559     -75.6619229
9.091                0.965589063     -75.7810127
9.092                0.965505323     -75.9004077
9.093                0.965421337     -76.0201089
9.094                0.965337104     -76.1401171
9.095                0.965252625     -76.2604334
9.096                0.965167899     -76.3810587
9.097                0.965082925      -76.501994
9.098                0.964997703     -76.6232402
9.099                0.964912232     -76.7447983
9.1                  0.964826511     -76.8666693
9.101                0.964740541     -76.9888542
9.102                 0.96465432     -77.1113538
9.103                0.964567849     -77.2341693
9.104                0.964481126     -77.3573015
9.105                0.964394151     -77.4807515
9.106                0.964306923     -77.6045201
9.107                0.964219443     -77.7286086
9.108                0.964131709     -77.8530177
9.109                0.964043721     -77.9777485
9.11                 0.963955479     -78.1028019
9.111                0.963866982     -78.2281791
9.112                0.963778229     -78.3538809
9.113                0.963689221     -78.4799084
9.114                0.963599956     -78.6062626
9.115                0.963510434     -78.7329445
9.116                0.963420655      -78.859955
9.117                0.963330618     -78.9872952
9.118                0.963240323     -79.1149661
9.119                0.963149769     -79.2429687
9.12                 0.963058956     -79.3713041
9.121                0.962967883     -79.4999731
9.122                0.962876551      -79.628977
9.123                0.962784957     -79.7583166
9.124                0.962693103      -79.887993
9.125                0.962600988     -80.0180072
9.126                 0.96250861     -80.1483602
9.127                0.962415971     -80.2790532
9.128                0.962323068      -80.410087
9.129                0.962229903     -80.5414628
9.13                 0.962136474     -80.6731815
9.131                0.962042781     -80.8052443
9.132                0.961948824     -80.9376521
9.133                0.961854603      -81.070406
9.134                0.961760116      -81.203507
9.135                0.961665364     -81.3369562
9.136                0.961570346     -81.4707546
9.137                0.961475061     -81.6049033
9.138                0.961379511     -81.7394033
9.139                0.961283693     -81.8742557
9.14                 0.961187608     -82.0094615
9.141                0.961091255     -82.1450218
9.142                0.960994635     -82.2809376
9.143                0.960897746       -82.41721
9.144                0.960800588       -82.55384
9.145                0.960703162     -82.6908288
9.146                0.960605466     -82.8281774
9.147                0.960507501     -82.9658868
9.148                0.960409266     -83.1039581
9.149                 0.96031076     -83.2423924
9.15                 0.960211985     -83.3811908
9.151                0.960112938     -83.5203543
9.152                0.960013621      -83.659884
9.153                0.959914032     -83.7997809
9.154                0.959814171     -83.9400462
9.155                0.959714039      -84.080681
9.156                0.959613635     -84.2216863
9.157                0.959512959     -84.3630631
9.158                 0.95941201     -84.5048127
9.159                0.959310788      -84.646936
9.16                 0.959209294     -84.7894341
9.161                0.959107526     -84.9323082
9.162                0.959005485     -85.0755593
9.163                0.958903171     -85.2191885
9.164                0.958800583      -85.363197
9.165                0.958697721     -85.5075857
9.166                0.958594585     -85.6523558
9.167                0.958491175     -85.7975084
9.168                0.958387491     -85.9430445
9.169                0.958283532     -86.0889654
9.17                 0.958179298      -86.235272
9.171                 0.95807479     -86.3819655
9.172                0.957970008     -86.5290469
9.173                 0.95786495     -86.6765174
9.174                0.957759618     -86.8243781
9.175                 0.95765401     -86.9726301
9.176                0.957548128     -87.1212745
9.177                 0.95744197     -87.2703123
9.178                0.957335537     -87.4197447
9.179                0.957228829     -87.5695728
9.18                 0.957121846     -87.7197977
9.181                0.957014587     -87.8704205
9.182                0.956907054     -88.0214423
9.183                0.956799245     -88.1728643
9.184                0.956691161     -88.3246875
9.185                0.956582802      -88.476913
9.186                0.956474168     -88.6295419
9.187                0.956365259     -88.7825755
9.188                0.956256075     -88.9360147
9.189                0.956146616     -89.0898606
9.19                 0.956036882     -89.2441145
9.191                0.955926874     -89.3987774
9.192                0.955816591     -89.5538503
9.193                0.955706033     -89.7093346
9.194                0.955595202     -89.8652311
9.195                0.955484096     -90.0215411
9.196                0.955372717     -90.1782656
9.197                0.955261064     -90.3354059
9.198                0.955149137     -90.4929629
9.199                0.955036937     -90.6509378
9.2                  0.954924464     -90.8093317
9.201                0.954811719     -90.9681458
9.202                  0.9546987      -91.127381
9.203                 0.95458541     -91.2870386
9.204                0.954471847     -91.4471197
9.205                0.954358013     -91.6076253
9.206                0.954243908     -91.7685566
9.207                0.954129531     -91.9299147
9.208                0.954014884     -92.0917007
9.209                0.953899966     -92.2539156
9.21                 0.953784779     -92.4165607
9.211                0.953669322     -92.5796369
9.212                0.953553596     -92.7431455
9.213                0.953437601     -92.9070875
9.214                0.953321338      -93.071464
9.215                0.953204807     -93.2362761
9.216                0.953088009      -93.401525
9.217                0.952970945     -93.5672117
9.218                0.952853614     -93.7333373
9.219                0.952736017     -93.8999029
9.22                 0.952618155     -94.0669097
9.221                0.952500028     -94.2343586
9.222                0.952381638     -94.4022509
9.223                0.952262984     -94.5705875
9.224                0.952144067     -94.7393696
9.225                0.952024888     -94.9085984
9.226                0.951905447     -95.0782747
9.227                0.951785746     -95.2483998
9.228                0.951665784     -95.4189748
9.229                0.951545563     -95.5900007
9.23                 0.951425084     -95.7614785
9.231                0.951304346     -95.9334094
9.232                0.951183351     -96.1057945
9.233                  0.9510621     -96.2786348
9.234                0.950940594     -96.4519313
9.235                0.950818833     -96.6256852
9.236                0.950696818     -96.7998976
9.237                 0.95057455     -96.9745694
9.238                 0.95045203     -97.1497017
9.239                0.950329258     -97.3252957
9.24                 0.950206237     -97.5013523
9.241                0.950082966     -97.6778726
9.242                0.949959448     -97.8548576
9.243                0.949835682     -98.0323085
9.244                0.949711669     -98.2102262
9.245                0.949587412     -98.3886118
9.246                0.949462911     -98.5674663
9.247                0.949338166     -98.7467908
9.248                 0.94921318     -98.9265862
9.249                0.949087954     -99.1068536
9.25                 0.948962487     -99.2875941
9.251                0.948836783     -99.4688086
9.252                0.948710841     -99.6504982
9.253                0.948584663     -99.8326639
9.254                0.948458251     -100.015307
9.255                0.948331606     -100.198427
9.256                0.948204729     -100.382027
9.257                0.948077621     -100.566107
9.258                0.947950283     -100.750668
9.259                0.947822718     -100.935711
9.26                 0.947694927     -101.121238
9.261                0.947566911     -101.307248
9.262                0.947438671     -101.493743
9.263                0.947310209     -101.680724
9.264                0.947181526     -101.868192
9.265                0.947052625     -102.056148
9.266                0.946923506     -102.244592
9.267                0.946794172     -102.433527
9.268                0.946664624     -102.622952
9.269                0.946534863     -102.812868
9.27                 0.946404891     -103.003278
9.271                 0.94627471      -103.19418
9.272                0.946144323     -103.385577
9.273                0.946013729      -103.57747
9.274                0.945882932     -103.769859
9.275                0.945751933     -103.962744
9.276                0.945620735     -104.156128
9.277                0.945489338     -104.350011
9.278                0.945357745     -104.544393
9.279                0.945225957     -104.739276
9.28                 0.945093978     -104.934661
9.281                0.944961808     -105.130548
9.282                 0.94482945     -105.326938
9.283                0.944696907     -105.523832
9.284                0.944564179     -105.721232
9.285                0.944431269     -105.919137
9.286                 0.94429818     -106.117548
9.287                0.944164913     -106.316467
9.288                0.944031471     -106.515894
9.289                0.943897856      -106.71583
9.29                  0.94376407     -106.916276
9.291                0.943630117     -107.117232
9.292                0.943495997       -107.3187
9.293                0.943361713      -107.52068
9.294                0.943227269     -107.723172
9.295                0.943092666     -107.926179
9.296                0.942957906     -108.129699
9.297                0.942822993     -108.333735
9.298                0.942687929     -108.538287
9.299                0.942552716     -108.743355
9.3                  0.942417358      -108.94894
9.301                0.942281856     -109.155043
9.302                0.942146214     -109.361665
9.303                0.942010434     -109.568806
9.304                 0.94187452     -109.776467
9.305                0.941738473     -109.984649
9.306                0.941602296     -110.193352
9.307                0.941465993     -110.402577
9.308                0.941329567     -110.612324
9.309                 0.94119302     -110.822595
9.31                 0.941056356     -111.033389
9.311                0.940919576     -111.244708
9.312                0.940782686     -111.456551
9.313                0.940645687      -111.66892
9.314                0.940508582     -111.881815
9.315                0.940371375     -112.095237
9.316                 0.94023407     -112.309185
9.317                0.940096669     -112.523662
9.318                0.939959175     -112.738666
9.319                0.939821592     -112.954199
9.32                 0.939683923     -113.170262
9.321                0.939546172     -113.386854
9.322                0.939408342     -113.603976
9.323                0.939270436     -113.821629
9.324                0.939132459     -114.039812
9.325                0.938994413     -114.258527
9.326                0.938856302     -114.477774
9.327                 0.93871813     -114.697553
9.328                  0.9385799     -114.917865
9.329                0.938441616      -115.13871
9.33                 0.938303282     -115.360088
9.331                0.938164901     -115.581999
9.332                0.938026478     -115.804445
9.333                0.937888016     -116.027425
9.334                0.937749519      -116.25094
9.335                0.937610992     -116.474989
9.336                0.937472437     -116.699574
9.337                0.937333859     -116.924694
9.338                0.937195262      -117.15035
9.339                 0.93705665     -117.376542
9.34                 0.936918027      -117.60327
9.341                0.936779398     -117.830535
9.342                0.936640766     -118.058336
9.343                0.936502136     -118.286673
9.344                0.936363512     -118.515547
9.345                0.936224899     -118.744959
9.346                  0.9360863     -118.974907
9.347                 0.93594772     -119.205393
9.348                0.935809163     -119.436416
9.349                0.935670635     -119.667976
9.35                 0.935532139     -119.900073
9.351                 0.93539368     -120.132708
9.352                0.935255263     -120.365881
9.353                0.935116892     -120.599591
9.354                0.934978572     -120.833838
9.355                0.934840308     -121.068622
9.356                0.934702104     -121.303944
9.357                0.934563965     -121.539804
9.358                0.934425896       -121.7762
9.359                0.934287901     -122.013133
9.36                 0.934149987     -122.250603
9.361                0.934012157     -122.488611
9.362                0.933874417     -122.727154
9.363                0.933736771     -122.966234
9.364                0.933599225      -123.20585
9.365                0.933461783     -123.446003
9.366                0.933324452     -123.686691
9.367                0.933187235     -123.927914
9.368                0.933050139     -124.169673
9.369                0.932913168     -124.411966
9.37                 0.932776328     -124.654794
9.371                0.932639624     -124.898157
9.372                0.932503061     -125.142053
9.373                0.932366645     -125.386483
9.374                0.932230381     -125.631445
9.375                0.932094275     -125.876941
9.376                0.931958332     -126.122968
9.377                0.931822557     -126.369527
9.378                0.931686957     -126.616618
9.379                0.931551536     -126.864239
9.38                 0.931416301      -127.11239
9.381                0.931281257     -127.361072
9.382                 0.93114641     -127.610282
9.383                0.931011765      -127.86002
9.384                0.930877329     -128.110286
9.385                0.930743107      -128.36108
9.386                0.930609104       -128.6124
9.387                0.930475328     -128.864246
9.388                0.930341783     -129.116617
9.389                0.930208476     -129.369512
9.39                 0.930075412     -129.622931
9.391                0.929942598     -129.876872
9.392                 0.92981004     -130.131336
9.393                0.929677743     -130.386321
9.394                0.929545714     -130.641826
9.395                0.929413959     -130.897851
9.396                0.929282484     -131.154394
9.397                0.929151295     -131.411455
9.398                0.929020399     -131.669032
9.399                0.928889801     -131.927125
9.4                  0.928759509     -132.185733
9.401                0.928629527     -132.444854
9.402                0.928499863     -132.704488
9.403                0.928370523     -132.964634
9.404                0.928241513      -133.22529
9.405                 0.92811284     -133.486455
9.406                 0.92798451     -133.748128
9.407                 0.92785653     -134.010309
9.408                0.927728905     -134.272995
9.409                0.927601643     -134.536185
9.41                  0.92747475     -134.799879
9.411                0.927348233     -135.064075
9.412                0.927222097     -135.328771
9.413                0.927096351     -135.593967
9.414                0.926970999     -135.859661
9.415                 0.92684605     -136.125852
9.416                0.926721509     -136.392537
9.417                0.926597383     -136.659717
9.418                 0.92647368     -136.927388
9.419                0.926350404     -137.195551
9.42                 0.926227564     -137.464203
9.421                0.926105167     -137.733342
9.422                0.925983217     -138.002968
9.423                0.925861724     -138.273078
9.424                0.925740693     -138.543671
9.425                0.925620131     -138.814745
9.426                0.925500044     -139.086299
9.427                0.925380441     -139.358331
9.428                0.925261327     -139.630839
9.429                0.925142709     -139.903821
9.43                 0.925024595     -140.177276
9.431                 0.92490699     -140.451201
9.432                0.924789903     -140.725596
9.433                0.924673339     -141.000457
9.434                0.924557307     -141.275784
9.435                0.924441811     -141.551574
9.436                 0.92432686     -141.827825
9.437                0.924212461     -142.104535
9.438                0.924098619     -142.381703
9.439                0.923985343     -142.659326
9.44                 0.923872639     -142.937401
9.441                0.923760513     -143.215928
9.442                0.923648974     -143.494904
9.443                0.923538027     -143.774327
9.444                 0.92342768     -144.054194
9.445                0.923317939     -144.334503
9.446                0.923208812     -144.615252
9.447                0.923100305      -144.89644
9.448                0.922992425     -145.178063
9.449                 0.92288518     -145.460119
9.45                 0.922778575     -145.742606
9.451                0.922672618     -146.025521
9.452                0.922567315     -146.308862
9.453                0.922462674     -146.592627
9.454                0.922358702     -146.876814
9.455                0.922255404     -147.161418
9.456                0.922152789     -147.446439
9.457                0.922050862     -147.731874
9.458                 0.92194963      -148.01772
9.459                0.921849101     -148.303974
9.46                 0.921749281     -148.590634
9.461                0.921650177     -148.877697
9.462                0.921551795      -149.16516
9.463                0.921454142     -149.453021
9.464                0.921357225     -149.741277
9.465                0.921261051     -150.029926
9.466                0.921165626     -150.318963
9.467                0.921070956     -150.608388
9.468                0.920977048     -150.898196
9.469                 0.92088391     -151.188384
9.47                 0.920791547     -151.478951
9.471                0.920699965     -151.769893
9.472                0.920609172     -152.061207
9.473                0.920519174      -152.35289
9.474                0.920429977     -152.644939
9.475                0.920341587     -152.937351
9.476                0.920254012     -153.230123
9.477                0.920167256     -153.523251
9.478                0.920081327     -153.816734
9.479                0.919996231     -154.110567
9.48                 0.919911974     -154.404747
9.481                0.919828562     -154.699272
9.482                0.919746001     -154.994137
9.483                0.919664297     -155.289341
9.484                0.919583457     -155.584879
9.485                0.919503486     -155.880747
9.486                 0.91942439     -156.176944
9.487                0.919346176     -156.473465
9.488                0.919268849     -156.770308
9.489                0.919192415     -157.067468
9.49                 0.919116879     -157.364942
9.491                0.919042248     -157.662727
9.492                0.918968527     -157.960819
9.493                0.918895722     -158.259216
9.494                0.918823839     -158.557912
9.495                0.918752882     -158.856906
9.496                0.918682857     -159.156192
9.497                0.918613771     -159.455768
9.498                0.918545627     -159.755631
9.499                0.918478432     -160.055775
9.5                  0.918412191     -160.356199
9.501                0.918346908     -160.656897
9.502                 0.91828259     -160.957867
9.503                0.918219241     -161.259104
9.504                0.918156866     -161.560605
9.505                 0.91809547     -161.862367
9.506                0.918035058     -162.164384
9.507                0.917975635     -162.466655
9.508                0.917917205     -162.769173
9.509                0.917859774     -163.071937
9.51                 0.917803345     -163.374942
9.511                0.917747925     -163.678183
9.512                0.917693516     -163.981658
9.513                0.917640123     -164.285362
9.514                0.917587751     -164.589292
9.515                0.917536405     -164.893443
9.516                0.917486087     -165.197811
9.517                0.917436804     -165.502392
9.518                0.917388557     -165.807183
9.519                0.917341352     -166.112179
9.52                 0.917295193     -166.417376
9.521                0.917250082     -166.722771
9.522                0.917206025     -167.028358
9.523                0.917163024     -167.334135
9.524                0.917121084     -167.640096
9.525                0.917080208     -167.946238
9.526                0.917040398     -168.252557
9.527                 0.91700166     -168.559048
9.528                0.916963996     -168.865707
9.529                0.916927408     -169.172531
9.53                 0.916891902     -169.479514
9.531                0.916857478     -169.786653
9.532                0.916824141     -170.093943
9.533                0.916791893      -170.40138
9.534                0.916760737      -170.70896
9.535                0.916730676     -171.016679
9.536                0.916701713     -171.324532
9.537                0.916673849     -171.632515
9.538                0.916647087     -171.940624
9.539                0.916621431     -172.248854
9.54                 0.916596881     -172.557202
9.541                0.916573441     -172.865662
9.542                0.916551112      -173.17423
9.543                0.916529896     -173.482902
9.544                0.916509796     -173.791674
9.545                0.916490812     -174.100542
9.546                0.916472948       -174.4095
9.547                0.916456204     -174.718545
9.548                0.916440582     -175.027672
9.549                0.916426084     -175.336876
9.55                 0.916412711     -175.646154
9.551                0.916400463     -175.955501
9.552                0.916389344     -176.264912
9.553                0.916379353     -176.574383
9.554                0.916370491      -176.88391
9.555                 0.91636276     -177.193488
9.556                 0.91635616     -177.503113
9.557                0.916350692      -177.81278
9.558                0.916346357     -178.122484
9.559                0.916343154     -178.432222
9.56                 0.916341086     -178.741989
9.561                0.916340152     -179.051781
9.562                0.916340352     -179.361592
9.563                0.916341686     -179.671419
9.564                0.916344155     -179.981257
9.565                0.916347758      179.708899
9.566                0.916352496      179.399052
9.567                0.916358368      179.089208
9.568                0.916365373      178.779371
9.569                0.916373513      178.469545
9.57                 0.916382785      178.159735
9.571                 0.91639319      177.849945
9.572                0.916404726      177.540179
9.573                0.916417393      177.230443
9.574                0.916431191      176.920741
9.575                0.916446118      176.611076
9.576                0.916462172      176.301455
9.577                0.916479354       175.99188
9.578                0.916497661      175.682356
9.579                0.916517093      175.372889
9.58                 0.916537648      175.063481
9.581                0.916559324      174.754139
9.582                 0.91658212      174.444865
9.583                0.916606034      174.135665
9.584                0.916631065      173.826543
9.585                 0.91665721      173.517504
9.586                0.916684468      173.208551
9.587                0.916712836      172.899689
9.588                0.916742312      172.590923
9.589                0.916772895      172.282257
9.59                 0.916804581      171.973695
9.591                0.916837368      171.665242
9.592                0.916871255      171.356902
9.593                0.916906238      171.048679
9.594                0.916942314      170.740578
9.595                0.916979481      170.432603
9.596                0.917017736      170.124758
9.597                0.917057076      169.817048
9.598                0.917097498      169.509476
9.599                0.917138999      169.202048
9.6                  0.917181576      168.894767
9.601                0.917225225      168.587637