! TOUCHSTONE file generated by CST DESIGN STUDIO
! Date and time: Tue Feb  4 13:56:54 2025
! Project name: C:\Work\MatlabApps\UnitCellOptimizationMatlab\CST\unitcell.cst
! Tree item: Tasks\Sweep1\SPara1\S-Parameters
! Header version: 2024
! Port assignment regex: !\s*Touchstone port\s*([0-9]+)\s*=\s*(CST MWS port|CST DES external port|CST DES block port)\s*(.+)\s* \(\"(.*)\"\)(\s*mode\s*([0-9]+))?.*
! Touchstone port assignment:
! Touchstone port 1 = CST DES external port 1 ("")
# GHz S MA R 50
9                     0.98243802     -70.6279306
9.001                0.982398265     -70.7307373
9.002                0.982358389     -70.8337914
9.003                0.982318392     -70.9370936
9.004                0.982278272     -71.0406447
9.005                0.982238031     -71.1444454
9.006                0.982197666     -71.2484964
9.007                0.982157179     -71.3527986
9.008                0.982116569     -71.4573526
9.009                0.982075835     -71.5621594
9.01                 0.982034977     -71.6672195
9.011                0.981993995     -71.7725339
9.012                0.981952889     -71.8781033
9.013                0.981911657     -71.9839283
9.014                0.981870301     -72.0900099
9.015                 0.98182882     -72.1963489
9.016                0.981787212     -72.3029458
9.017                0.981745479     -72.4098017
9.018                0.981703619     -72.5169172
9.019                0.981661633     -72.6242931
9.02                  0.98161952     -72.7319303
9.021                0.981577279     -72.8398295
9.022                0.981534911     -72.9479915
9.023                0.981492415      -73.056417
9.024                0.981449791      -73.165107
9.025                0.981407038     -73.2740622
9.026                0.981364157     -73.3832834
9.027                0.981321147     -73.4927714
9.028                0.981278007      -73.602527
9.029                0.981234737     -73.7125511
9.03                 0.981191338     -73.8228444
9.031                0.981147808     -73.9334077
9.032                0.981104147     -74.0442418
9.033                0.981060356     -74.1553477
9.034                0.981016433      -74.266726
9.035                0.980972379     -74.3783777
9.036                0.980928193     -74.4903035
9.037                0.980883875     -74.6025043
9.038                0.980839425     -74.7149808
9.039                0.980794842      -74.827734
9.04                 0.980750126     -74.9407646
9.041                0.980705276     -75.0540735
9.042                0.980660293     -75.1676615
9.043                0.980615176     -75.2815295
9.044                0.980569925     -75.3956783
9.045                 0.98052454     -75.5101087
9.046                0.980479019     -75.6248216
9.047                0.980433364     -75.7398178
9.048                0.980387573     -75.8550983
9.049                0.980341647     -75.9706637
9.05                 0.980295585      -76.086515
9.051                0.980249386      -76.202653
9.052                0.980203051     -76.3190787
9.053                 0.98015658     -76.4357927
9.054                0.980109971     -76.5527961
9.055                0.980063225     -76.6700897
9.056                0.980016341     -76.7876742
9.057                 0.97996932     -76.9055507
9.058                 0.97992216       -77.02372
9.059                0.979874862     -77.1421828
9.06                 0.979827425     -77.2609402
9.061                 0.97977985      -77.379993
9.062                0.979732135      -77.499342
9.063                 0.97968428     -77.6189882
9.064                0.979636286     -77.7389324
9.065                0.979588152     -77.8591754
9.066                0.979539877     -77.9797183
9.067                0.979491462     -78.1005618
9.068                0.979442906     -78.2217069
9.069                0.979394209     -78.3431544
9.07                  0.97934537     -78.4649053
9.071                 0.97929639     -78.5869603
9.072                0.979247268     -78.7093205
9.073                0.979198004     -78.8319868
9.074                0.979148598     -78.9549599
9.075                0.979099049     -79.0782409
9.076                0.979049357     -79.2018305
9.077                0.978999523     -79.3257298
9.078                0.978949544     -79.4499397
9.079                0.978899423     -79.5744609
9.08                 0.978849157     -79.6992945
9.081                0.978798748     -79.8244414
9.082                0.978748194     -79.9499025
9.083                0.978697495     -80.0756786
9.084                0.978646652     -80.2017707
9.085                0.978595664     -80.3281798
9.086                0.978544531     -80.4549067
9.087                0.978493253     -80.5819523
9.088                0.978441829     -80.7093177
9.089                0.978390259     -80.8370036
9.09                 0.978338543     -80.9650111
9.091                 0.97828668     -81.0933411
9.092                0.978234672     -81.2219944
9.093                0.978182516     -81.3509721
9.094                0.978130214     -81.4802751
9.095                0.978077765     -81.6099042
9.096                0.978025169     -81.7398605
9.097                0.977972425     -81.8701448
9.098                0.977919533     -82.0007581
9.099                0.977866494     -82.1317014
9.1                  0.977813306     -82.2629756
9.101                0.977759971     -82.3945816
9.102                0.977706487     -82.5265204
9.103                0.977652854     -82.6587929
9.104                0.977599073     -82.7914001
9.105                0.977545143     -82.9243429
9.106                0.977491064     -83.0576223
9.107                0.977436836     -83.1912392
9.108                0.977382458     -83.3251946
9.109                0.977327931     -83.4594894
9.11                 0.977273254     -83.5941246
9.111                0.977218428     -83.7291012
9.112                0.977163451     -83.8644201
9.113                0.977108325     -84.0000822
9.114                0.977053048     -84.1360885
9.115                0.976997621     -84.2724401
9.116                0.976942043     -84.4091378
9.117                0.976886315     -84.5461826
9.118                0.976830436     -84.6835755
9.119                0.976774406     -84.8213174
9.12                 0.976718225     -84.9594093
9.121                0.976661894     -85.0978523
9.122                0.976605411     -85.2366472
9.123                0.976548777      -85.375795
9.124                0.976491991     -85.5152967
9.125                0.976435054     -85.6551532
9.126                0.976377966     -85.7953657
9.127                0.976320726     -85.9359349
9.128                0.976263334     -86.0768619
9.129                0.976205791     -86.2181477
9.13                 0.976148095     -86.3597932
9.131                0.976090248     -86.5017995
9.132                0.976032249     -86.6441675
9.133                0.975974098     -86.7868981
9.134                0.975915795     -86.9299924
9.135                 0.97585734     -87.0734513
9.136                0.975798733     -87.2172759
9.137                0.975739974      -87.361467
9.138                0.975681062     -87.5060258
9.139                0.975621999     -87.6509531
9.14                 0.975562783       -87.79625
9.141                0.975503415     -87.9419174
9.142                0.975443895     -88.0879563
9.143                0.975384223     -88.2343677
9.144                0.975324399     -88.3811526
9.145                0.975264422      -88.528312
9.146                0.975204293     -88.6758468
9.147                0.975144013     -88.8237581
9.148                 0.97508358     -88.9720468
9.149                0.975022995     -89.1207139
9.15                 0.974962258     -89.2697605
9.151                0.974901369     -89.4191874
9.152                0.974840329     -89.5689957
9.153                0.974779136     -89.7191864
9.154                0.974717792     -89.8697604
9.155                0.974656296     -90.0207187
9.156                0.974594649     -90.1720624
9.157                 0.97453285     -90.3237923
9.158                0.974470899     -90.4759096
9.159                0.974408798     -90.6284152
9.16                 0.974346545       -90.78131
9.161                0.974284142      -90.934595
9.162                0.974221587     -91.0882713
9.163                0.974158882     -91.2423398
9.164                0.974096025     -91.3968016
9.165                0.974033019     -91.5516575
9.166                0.973969862     -91.7069085
9.167                0.973906555     -91.8625558
9.168                0.973843098     -92.0186001
9.169                0.973779491     -92.1750426
9.17                 0.973715735     -92.3318842
9.171                0.973651829     -92.4891258
9.172                0.973587774     -92.6467685
9.173                 0.97352357     -92.8048133
9.174                0.973459217      -92.963261
9.175                0.973394716     -93.1221127
9.176                0.973330066     -93.2813694
9.177                0.973265269      -93.441032
9.178                0.973200323     -93.6011016
9.179                 0.97313523      -93.761579
9.18                  0.97306999     -93.9224653
9.181                0.973004602     -94.0837613
9.182                0.972939068     -94.2454682
9.183                0.972873388     -94.4075868
9.184                0.972807561     -94.5701182
9.185                0.972741589     -94.7330632
9.186                0.972675471     -94.8964229
9.187                0.972609208     -95.0601982
9.188                0.972542801       -95.22439
9.189                0.972476249     -95.3889994
9.19                 0.972409552     -95.5540272
9.191                0.972342713     -95.7194745
9.192                 0.97227573     -95.8853421
9.193                0.972208604     -96.0516311
9.194                0.972141336     -96.2183424
9.195                0.972073925     -96.3854768
9.196                0.972006373     -96.5530355
9.197                 0.97193868     -96.7210192
9.198                0.971870846      -96.889429
9.199                0.971802872     -97.0582658
9.2                  0.971734758     -97.2275305
9.201                0.971666504      -97.397224
9.202                0.971598112     -97.5673473
9.203                0.971529582     -97.7379014
9.204                0.971460913      -97.908887
9.205                0.971392108     -98.0803052
9.206                0.971323165     -98.2521568
9.207                0.971254087     -98.4244428
9.208                0.971184873     -98.5971641
9.209                0.971115523     -98.7703216
9.21                  0.97104604     -98.9439162
9.211                0.970976422     -99.1179488
9.212                0.970906671     -99.2924204
9.213                0.970836787     -99.4673317
9.214                0.970766772     -99.6426837
9.215                0.970696625     -99.8184772
9.216                0.970626347     -99.9947133
9.217                0.970555939     -100.171393
9.218                0.970485402     -100.348516
9.219                0.970414736     -100.526085
9.22                 0.970343942       -100.7041
9.221                0.970273021     -100.882561
9.222                0.970201974      -101.06147
9.223                  0.9701308     -101.240828
9.224                0.970059502     -101.420635
9.225                0.969988079     -101.600893
9.226                0.969916533     -101.781601
9.227                0.969844864     -101.962762
9.228                0.969773074     -102.144375
9.229                0.969701162     -102.326442
9.23                 0.969629131     -102.508963
9.231                 0.96955698      -102.69194
9.232                 0.96948471     -102.875372
9.233                0.969412323     -103.059262
9.234                 0.96933982     -103.243609
9.235                0.969267201     -103.428414
9.236                0.969194467     -103.613679
9.237                0.969121619     -103.799404
9.238                0.969048658      -103.98559
9.239                0.968975585     -104.172238
9.24                 0.968902402     -104.359347
9.241                0.968829108     -104.546921
9.242                0.968755706     -104.734957
9.243                0.968682195     -104.923459
9.244                0.968608578     -105.112426
9.245                0.968534855      -105.30186
9.246                0.968461028      -105.49176
9.247                0.968387097     -105.682128
9.248                0.968313063     -105.872964
9.249                0.968238928     -106.064269
9.25                 0.968164693     -106.256045
9.251                0.968090359      -106.44829
9.252                0.968015927     -106.641007
9.253                0.967941399     -106.834196
9.254                0.967866775     -107.027857
9.255                0.967792056     -107.221992
9.256                0.967717245       -107.4166
9.257                0.967642342     -107.611683
9.258                0.967567349     -107.807242
9.259                0.967492267     -108.003276
9.26                 0.967417097     -108.199787
9.261                 0.96734184     -108.396775
9.262                0.967266498      -108.59424
9.263                0.967191073     -108.792184
9.264                0.967115565     -108.990608
9.265                0.967039976      -109.18951
9.266                0.966964307     -109.388893
9.267                 0.96688856     -109.588757
9.268                0.966812737     -109.789102
9.269                0.966736839     -109.989928
9.27                 0.966660866     -110.191238
9.271                0.966584822      -110.39303
9.272                0.966508707     -110.595306
9.273                0.966432522     -110.798066
9.274                 0.96635627      -111.00131
9.275                0.966279952      -111.20504
9.276                 0.96620357     -111.409255
9.277                0.966127125     -111.613956
9.278                0.966050618     -111.819144
9.279                0.965974052     -112.024819
9.28                 0.965897429     -112.230981
9.281                0.965820749     -112.437631
9.282                0.965744015      -112.64477
9.283                0.965667228     -112.852397
9.284                 0.96559039     -113.060514
9.285                0.965513502      -113.26912
9.286                0.965436568     -113.478217
9.287                0.965359588     -113.687803
9.288                0.965282564     -113.897881
9.289                0.965205498     -114.108449
9.29                 0.965128392     -114.319509
9.291                0.965051248     -114.531061
9.292                0.964974067     -114.743105
9.293                0.964896853     -114.955642
9.294                0.964819606     -115.168671
9.295                0.964742328     -115.382194
9.296                0.964665022     -115.596209
9.297                0.964587689     -115.810719
9.298                0.964510332     -116.025722
9.299                0.964432953      -116.24122
9.3                  0.964355553     -116.457211
9.301                0.964278135     -116.673698
9.302                0.964200701     -116.890679
9.303                0.964123252     -117.108155
9.304                0.964045792     -117.326126
9.305                0.963968322     -117.544593
9.306                0.963890845     -117.763555
9.307                0.963813362     -117.983013
9.308                0.963735876     -118.202966
9.309                0.963658389     -118.423415
9.31                 0.963580903      -118.64436
9.311                0.963503421     -118.865802
9.312                0.963425945     -119.087739
9.313                0.963348477     -119.310172
9.314                 0.96327102     -119.533102
9.315                0.963193576     -119.756528
9.316                0.963116147      -119.98045
9.317                0.963038736     -120.204869
9.318                0.962961345     -120.429783
9.319                0.962883976     -120.655194
9.32                 0.962806633     -120.881101
9.321                0.962729317     -121.107504
9.322                0.962652031     -121.334403
9.323                0.962574778     -121.561797
9.324                0.962497559     -121.789688
9.325                0.962420379     -122.018074
9.326                0.962343238     -122.246956
9.327                0.962266141     -122.476333
9.328                0.962189089     -122.706205
9.329                0.962112085     -122.936573
9.33                 0.962035132     -123.167435
9.331                0.961958232     -123.398791
9.332                0.961881388     -123.630642
9.333                0.961804603     -123.862987
9.334                 0.96172788     -124.095826
9.335                0.961651221     -124.329158
9.336                0.961574629     -124.562983
9.337                0.961498107     -124.797301
9.338                0.961421657     -125.032112
9.339                0.961345284     -125.267415
9.34                 0.961268988     -125.503209
9.341                0.961192774     -125.739495
9.342                0.961116644     -125.976272
9.343                0.961040601     -126.213539
9.344                0.960964648     -126.451296
9.345                0.960888787     -126.689543
9.346                0.960813023     -126.928279
9.347                0.960737358     -127.167503
9.348                0.960661794     -127.407216
9.349                0.960586335     -127.647415
9.35                 0.960510984     -127.888102
9.351                0.960435744     -128.129275
9.352                0.960360618     -128.370934
9.353                0.960285609     -128.613078
9.354                 0.96021072     -128.855706
9.355                0.960135955     -129.098818
9.356                0.960061316     -129.342414
9.357                0.959986806     -129.586491
9.358                0.959912429      -129.83105
9.359                0.959838189     -130.076091
9.36                 0.959764087     -130.321611
9.361                0.959690127      -130.56761
9.362                0.959616313     -130.814089
9.363                0.959542648     -131.061044
9.364                0.959469135     -131.308477
9.365                0.959395778     -131.556386
9.366                0.959322578      -131.80477
9.367                0.959249541     -132.053628
9.368                0.959176669     -132.302959
9.369                0.959103966     -132.552763
9.37                 0.959031435     -132.803038
9.371                0.958959078     -133.053783
9.372                0.958886901     -133.304998
9.373                0.958814905     -133.556681
9.374                0.958743095     -133.808831
9.375                0.958671474     -134.061447
9.376                0.958600045     -134.314528
9.377                0.958528812     -134.568073
9.378                0.958457778     -134.822081
9.379                0.958386946     -135.076551
9.38                 0.958316321     -135.331481
9.381                0.958245905      -135.58687
9.382                0.958175702     -135.842717
9.383                0.958105716      -136.09902
9.384                 0.95803595     -136.355779
9.385                0.957966407     -136.612993
9.386                0.957897091     -136.870658
9.387                0.957828007     -137.128776
9.388                0.957759156     -137.387343
9.389                0.957690543     -137.646359
9.39                 0.957622171     -137.905822
9.391                0.957554045     -138.165731
9.392                0.957486167     -138.426084
9.393                 0.95741854      -138.68688
9.394                 0.95735117     -138.948117
9.395                0.957284059     -139.209794
9.396                 0.95721721     -139.471909
9.397                0.957150628     -139.734461
9.398                0.957084317     -139.997447
9.399                0.957018279     -140.260868
9.4                  0.956952518     -140.524719
9.401                0.956887038     -140.789001
9.402                0.956821843     -141.053711
9.403                0.956756936     -141.318848
9.404                0.956692321      -141.58441
9.405                0.956628002     -141.850394
9.406                0.956563981       -142.1168
9.407                0.956500264     -142.383626
9.408                0.956436853     -142.650869
9.409                0.956373752     -142.918527
9.41                 0.956310965       -143.1866
9.411                0.956248495     -143.455084
9.412                0.956186347     -143.723979
9.413                0.956124523     -143.993282
9.414                0.956063027      -144.26299
9.415                0.956001864     -144.533103
9.416                0.955941036     -144.803618
9.417                0.955880548     -145.074532
9.418                0.955820402     -145.345845
9.419                0.955760603     -145.617553
9.42                 0.955701154     -145.889655
9.421                 0.95564206     -146.162148
9.422                0.955583322     -146.435031
9.423                0.955524946     -146.708301
9.424                0.955466934     -146.981955
9.425                0.955409291     -147.255993
9.426                0.955352019      -147.53041
9.427                0.955295123     -147.805206
9.428                0.955238607     -148.080377
9.429                0.955182472     -148.355922
9.43                 0.955126724     -148.631838
9.431                0.955071366     -148.908122
9.432                0.955016401     -149.184773
9.433                0.954961833     -149.461787
9.434                0.954907665     -149.739163
9.435                0.954853901     -150.016897
9.436                0.954800545     -150.294988
9.437                  0.9547476     -150.573433
9.438                0.954695068     -150.852229
9.439                0.954642955     -151.131374
9.44                 0.954591263     -151.410864
9.441                0.954539996     -151.690698
9.442                0.954489157     -151.970873
9.443                0.954438749     -152.251386
9.444                0.954388777     -152.532235
9.445                0.954339243     -152.813416
9.446                 0.95429015     -153.094927
9.447                0.954241502     -153.376766
9.448                0.954193303     -153.658929
9.449                0.954145556     -153.941413
9.45                 0.954098263     -154.224217
9.451                0.954051429     -154.507336
9.452                0.954005056     -154.790769
9.453                0.953959148     -155.074512
9.454                0.953913708     -155.358562
9.455                0.953868739     -155.642916
9.456                0.953824244     -155.927572
9.457                0.953780227     -156.212527
9.458                 0.95373669     -156.497777
9.459                0.953693637     -156.783319
9.46                 0.953651071     -157.069151
9.461                0.953608994     -157.355269
9.462                 0.95356741     -157.641671
9.463                0.953526322     -157.928353
9.464                0.953485732     -158.215312
9.465                0.953445645     -158.502544
9.466                0.953406062     -158.790048
9.467                0.953366986     -159.077819
9.468                0.953328421     -159.365855
9.469                0.953290369     -159.654152
9.47                 0.953252833     -159.942706
9.471                0.953215815     -160.231516
9.472                 0.95317932     -160.520577
9.473                0.953143348     -160.809886
9.474                0.953107904      -161.09944
9.475                0.953072989     -161.389236
9.476                0.953038606     -161.679269
9.477                0.953004759     -161.969538
9.478                0.952971448     -162.260038
9.479                0.952938678     -162.550766
9.48                 0.952906449     -162.841719
9.481                0.952874766     -163.132893
9.482                 0.95284363     -163.424285
9.483                0.952813044     -163.715891
9.484                 0.95278301     -164.007708
9.485                 0.95275353     -164.299732
9.486                0.952724606      -164.59196
9.487                0.952696242     -164.884388
9.488                0.952668439     -165.177013
9.489                0.952641199     -165.469832
9.49                 0.952614524      -165.76284
9.491                0.952588417     -166.056034
9.492                0.952562879      -166.34941
9.493                0.952537913     -166.642965
9.494                0.952513521     -166.936696
9.495                0.952489704     -167.230598
9.496                0.952466464     -167.524668
9.497                0.952443804     -167.818902
9.498                0.952421724     -168.113297
9.499                0.952400228     -168.407849
9.5                  0.952379316     -168.702554
9.501                 0.95235899     -168.997408
9.502                0.952339253     -169.292408
9.503                0.952320105      -169.58755
9.504                0.952301548     -169.882831
9.505                0.952283583     -170.178245
9.506                0.952266213     -170.473791
9.507                0.952249439     -170.769464
9.508                0.952233261     -171.065259
9.509                0.952217682     -171.361174
9.51                 0.952202702     -171.657205
9.511                0.952188323     -171.953347
9.512                0.952174546     -172.249597
9.513                0.952161373     -172.545951
9.514                0.952148804     -172.842405
9.515                 0.95213684     -173.138956
9.516                0.952125483     -173.435599
9.517                0.952114733     -173.732331
9.518                0.952104592     -174.029147
9.519                 0.95209506     -174.326045
9.52                 0.952086139     -174.623019
9.521                0.952077828     -174.920067
9.522                0.952070129     -175.217183
9.523                0.952063042     -175.514365
9.524                0.952056569     -175.811608
9.525                 0.95205071     -176.108909
9.526                0.952045464     -176.406263
9.527                0.952040834     -176.703667
9.528                0.952036819     -177.001116
9.529                0.952033419     -177.298608
9.53                 0.952030636     -177.596137
9.531                0.952028469       -177.8937
9.532                0.952026918     -178.191292
9.533                0.952025985     -178.488911
9.534                0.952025669     -178.786552
9.535                 0.95202597     -179.084211
9.536                0.952026888     -179.381884
9.537                0.952028424     -179.679567
9.538                0.952030577     -179.977256
9.539                0.952033348      179.725052
9.54                 0.952036736      179.427362
9.541                 0.95204074      179.129678
9.542                0.952045362      178.832003
9.543                  0.9520506      178.534341
9.544                0.952056455      178.236698
9.545                0.952062925      177.939075
9.546                0.952070011      177.641478
9.547                0.952077713      177.343911
9.548                0.952086029      177.046376
9.549                0.952094959      176.748879
9.55                 0.952104502      176.451423
9.551                0.952114658      176.154012
9.552                0.952125427       175.85665
9.553                0.952136807       175.55934
9.554                0.952148798      175.262088
9.555                0.952161399      174.964897
9.556                0.952174608       174.66777
9.557                0.952188426      174.370712
9.558                0.952202851      174.073726
9.559                0.952217882      173.776816
9.56                 0.952233518      173.479987
9.561                0.952249759      173.183242
9.562                0.952266602      172.886585
9.563                0.952284046       172.59002
9.564                0.952302091      172.293551
9.565                0.952320735      171.997181
9.566                0.952339977      171.700915
9.567                0.952359816      171.404756
9.568                0.952380249      171.108708
9.569                0.952401276      170.812775
9.57                 0.952422895      170.516961
9.571                0.952445104      170.221269
9.572                0.952467903      169.925704
9.573                0.952491288      169.630269
9.574                 0.95251526      169.334968
9.575                0.952539815      169.039804
9.576                0.952564952      168.744782
9.577                0.952590669      168.449905
9.578                0.952616965      168.155177
9.579                0.952643838      167.860602
9.58                 0.952671285      167.566183
9.581                0.952699305      167.271924
9.582                0.952727895      166.977828
9.583                0.952757055        166.6839
9.584                 0.95278678      166.390143
9.585                 0.95281707      166.096561
9.586                0.952847923      165.803157
9.587                0.952879335      165.509934
9.588                0.952911306      165.216898
9.589                0.952943831       164.92405
9.59                 0.952976911      164.631395
9.591                 0.95301054      164.338936
9.592                0.953044719      164.046677
9.593                0.953079443      163.754622
9.594                0.953114712      163.462773
9.595                0.953150521      163.171134
9.596                0.953186869      162.879709
9.597                0.953223753      162.588502
9.598                 0.95326117      162.297515
9.599                0.953299118      162.006752
9.6                  0.953337594      161.716217
9.601                0.953376596      161.425913