! TOUCHSTONE file generated by CST DESIGN STUDIO
! Date and time: Tue Feb  4 17:40:40 2025
! Project name: C:\Work\MatlabApps\UnitCellOptimizationMatlab\CST\unitcell.cst
! Tree item: Tasks\Sweep1\SPara1\S-Parameters
! Header version: 2024
! Port assignment regex: !\s*Touchstone port\s*([0-9]+)\s*=\s*(CST MWS port|CST DES external port|CST DES block port)\s*(.+)\s* \(\"(.*)\"\)(\s*mode\s*([0-9]+))?.*
! Touchstone port assignment:
! Touchstone port 1 = CST DES external port 1 ("")
# GHz S MA R 50
9                    0.992398416     -70.9042517
9.001                0.992382004     -71.0061409
9.002                0.992365544     -71.1082713
9.003                0.992349035     -71.2106435
9.004                0.992332477     -71.3132583
9.005                 0.99231587     -71.4161164
9.006                0.992299214     -71.5192185
9.007                0.992282509     -71.6225654
9.008                0.992265754     -71.7261578
9.009                 0.99224895     -71.8299964
9.01                 0.992232097      -71.934082
9.011                0.992215193     -72.0384152
9.012                 0.99219824     -72.1429969
9.013                0.992181237     -72.2478277
9.014                0.992164184     -72.3529084
9.015                0.992147081     -72.4582398
9.016                0.992129927     -72.5638226
9.017                0.992112723     -72.6696575
9.018                0.992095468     -72.7757452
9.019                0.992078163     -72.8820867
9.02                 0.992060807     -72.9886825
9.021                  0.9920434     -73.0955334
9.022                0.992025942     -73.2026403
9.023                0.992008433     -73.3100037
9.024                0.991990872     -73.4176247
9.025                 0.99197326     -73.5255038
9.026                0.991955597     -73.6336418
9.027                0.991937882     -73.7420395
9.028                0.991920115     -73.8506977
9.029                0.991902296     -73.9596172
9.03                 0.991884425     -74.0687987
9.031                0.991866503      -74.178243
9.032                0.991848527     -74.2879508
9.033                  0.9918305      -74.397923
9.034                 0.99181242     -74.5081603
9.035                0.991794288     -74.6186635
9.036                0.991776103     -74.7294334
9.037                0.991757865     -74.8404708
9.038                0.991739574     -74.9517765
9.039                 0.99172123     -75.0633512
9.04                 0.991702833     -75.1751957
9.041                0.991684383     -75.2873109
9.042                 0.99166588     -75.3996975
9.043                0.991647322     -75.5123563
9.044                0.991628712     -75.6252882
9.045                0.991610047     -75.7384939
9.046                0.991591329     -75.8519742
9.047                0.991572557       -75.96573
9.048                0.991553731      -76.079762
9.049                 0.99153485      -76.194071
9.05                 0.991515916     -76.3086579
9.051                0.991496927     -76.4235235
9.052                0.991477883     -76.5386686
9.053                0.991458785     -76.6540939
9.054                0.991439632     -76.7698004
9.055                0.991420425     -76.8857888
9.056                0.991401162       -77.00206
9.057                0.991381844     -77.1186148
9.058                0.991362472     -77.2354539
9.059                0.991343044     -77.3525783
9.06                 0.991323561     -77.4699888
9.061                0.991304022     -77.5876861
9.062                0.991284428     -77.7056712
9.063                0.991264778     -77.8239448
9.064                0.991245072     -77.9425078
9.065                0.991225311      -78.061361
9.066                0.991205493     -78.1805053
9.067                 0.99118562     -78.2999415
9.068                 0.99116569     -78.4196705
9.069                0.991145705     -78.5396931
9.07                 0.991125662       -78.66001
9.071                0.991105564     -78.7806223
9.072                0.991085409     -78.9015307
9.073                0.991065197     -79.0227361
9.074                0.991044928     -79.1442394
9.075                0.991024603     -79.2660413
9.076                0.991004221     -79.3881428
9.077                0.990983782     -79.5105446
9.078                0.990963285     -79.6332478
9.079                0.990942732     -79.7562531
9.08                 0.990922121     -79.8795613
9.081                0.990901453     -80.0031734
9.082                0.990880727     -80.1270902
9.083                0.990859944     -80.2513126
9.084                0.990839104     -80.3758415
9.085                0.990818205     -80.5006777
9.086                0.990797249     -80.6258221
9.087                0.990776235     -80.7512755
9.088                0.990755163     -80.8770389
9.089                0.990734033     -81.0031131
9.09                 0.990712845      -81.129499
9.091                0.990691599     -81.2561974
9.092                0.990670294     -81.3832094
9.093                0.990648931     -81.5105356
9.094                 0.99062751     -81.6381771
9.095                 0.99060603     -81.7661347
9.096                0.990584492     -81.8944092
9.097                0.990562895     -82.0230017
9.098                0.990541239     -82.1519129
9.099                0.990519525     -82.2811437
9.1                  0.990497752     -82.4106952
9.101                0.990475919      -82.540568
9.102                0.990454028     -82.6707632
9.103                0.990432078     -82.8012816
9.104                0.990410069     -82.9321242
9.105                0.990388001     -83.0632917
9.106                0.990365873     -83.1947852
9.107                0.990343686     -83.3266055
9.108                 0.99032144     -83.4587536
9.109                0.990299135     -83.5912302
9.11                  0.99027677     -83.7240364
9.111                0.990254345     -83.8571731
9.112                0.990231862      -83.990641
9.113                0.990209318     -84.1244412
9.114                0.990186715     -84.2585746
9.115                0.990164052     -84.3930421
9.116                 0.99014133     -84.5278445
9.117                0.990118547     -84.6629828
9.118                0.990095705     -84.7984579
9.119                0.990072803     -84.9342707
9.12                 0.990049842     -85.0704221
9.121                 0.99002682     -85.2069131
9.122                0.990003738     -85.3437445
9.123                0.989980597     -85.4809173
9.124                0.989957395     -85.6184324
9.125                0.989934134     -85.7562907
9.126                0.989910812     -85.8944932
9.127                 0.98988743     -86.0330406
9.128                0.989863988     -86.1719341
9.129                0.989840486     -86.3111744
9.13                 0.989816924     -86.4507625
9.131                0.989793302     -86.5906994
9.132                0.989769619     -86.7309859
9.133                0.989745877      -86.871623
9.134                0.989722074     -87.0126116
9.135                0.989698211     -87.1539526
9.136                0.989674287      -87.295647
9.137                0.989650304     -87.4376957
9.138                 0.98962626     -87.5800995
9.139                0.989602156     -87.7228595
9.14                 0.989577992     -87.8659766
9.141                0.989553767     -88.0094516
9.142                0.989529483     -88.1532856
9.143                0.989505138     -88.2974794
9.144                0.989480733     -88.4420339
9.145                0.989456267     -88.5869502
9.146                0.989431742     -88.7322291
9.147                0.989407157     -88.8778715
9.148                0.989382511     -89.0238784
9.149                0.989357805     -89.1702507
9.15                 0.989333039     -89.3169894
9.151                0.989308213     -89.4640953
9.152                0.989283327     -89.6115695
9.153                0.989258382     -89.7594128
9.154                0.989233376     -89.9076261
9.155                 0.98920831     -90.0562104
9.156                0.989183184     -90.2051666
9.157                0.989157999     -90.3544957
9.158                0.989132754     -90.5041986
9.159                0.989107449     -90.6542761
9.16                 0.989082084     -90.8047293
9.161                 0.98905666      -90.955559
9.162                0.989031176     -91.1067662
9.163                0.989005633     -91.2583518
9.164                 0.98898003     -91.4103168
9.165                0.988954368      -91.562662
9.166                0.988928646     -91.7153884
9.167                0.988902866     -91.8684969
9.168                0.988877026     -92.0219884
9.169                0.988851127     -92.1758639
9.17                 0.988825169     -92.3301243
9.171                0.988799152     -92.4847705
9.172                0.988773077     -92.6398033
9.173                0.988746942     -92.7952239
9.174                0.988720749      -92.951033
9.175                0.988694498     -93.1072315
9.176                0.988668188     -93.2638205
9.177                 0.98864182     -93.4208007
9.178                0.988615393     -93.5781732
9.179                0.988588909     -93.7359388
9.18                 0.988562366     -93.8940985
9.181                0.988535766     -94.0526532
9.182                0.988509108     -94.2116037
9.183                0.988482392      -94.370951
9.184                0.988455619     -94.5306959
9.185                0.988428788     -94.6908395
9.186                  0.9884019     -94.8513826
9.187                0.988374955      -95.012326
9.188                0.988347953     -95.1736708
9.189                0.988320895     -95.3354177
9.19                  0.98829378     -95.4975678
9.191                0.988266608     -95.6601218
9.192                 0.98823938     -95.8230807
9.193                0.988212096     -95.9864455
9.194                0.988184756     -96.1502168
9.195                 0.98815736     -96.3143958
9.196                0.988129908     -96.4789831
9.197                0.988102401     -96.6439798
9.198                0.988074839     -96.8093867
9.199                0.988047221     -96.9752047
9.2                  0.988019549     -97.1414347
9.201                0.987991822     -97.3080774
9.202                0.987964041     -97.4751339
9.203                0.987936205      -97.642605
9.204                0.987908315     -97.8104915
9.205                0.987880372     -97.9787944
9.206                0.987852374     -98.1475144
9.207                0.987824324     -98.3166524
9.208                 0.98779622     -98.4862093
9.209                0.987768063      -98.656186
9.21                 0.987739854     -98.8265833
9.211                0.987711592      -98.997402
9.212                0.987683278     -99.1686429
9.213                0.987654912     -99.3403071
9.214                0.987626494     -99.5123951
9.215                0.987598025      -99.684908
9.216                0.987569505     -99.8578465
9.217                0.987540933     -100.031211
9.218                0.987512311     -100.205004
9.219                0.987483639     -100.379224
9.22                 0.987454917     -100.553873
9.221                0.987426145     -100.728952
9.222                0.987397323     -100.904462
9.223                0.987368453     -101.080403
9.224                0.987339533     -101.256776
9.225                0.987310565     -101.433582
9.226                0.987281549     -101.610821
9.227                0.987252485     -101.788495
9.228                0.987223373     -101.966605
9.229                0.987194214     -102.145151
9.23                 0.987165008     -102.324133
9.231                0.987135756     -102.503553
9.232                0.987106457     -102.683412
9.233                0.987077113     -102.863709
9.234                0.987047723     -103.044447
9.235                0.987018288     -103.225625
9.236                0.986988808     -103.407245
9.237                0.986959284     -103.589307
9.238                0.986929716     -103.771812
9.239                0.986900104      -103.95476
9.24                 0.986870449     -104.138153
9.241                0.986840752     -104.321991
9.242                0.986811012     -104.506275
9.243                 0.98678123     -104.691005
9.244                0.986751406     -104.876182
9.245                0.986721541     -105.061808
9.246                0.986691636     -105.247882
9.247                0.986661691     -105.434405
9.248                0.986631705     -105.621378
9.249                0.986601681     -105.808802
9.25                 0.986571617     -105.996677
9.251                0.986541515     -106.185005
9.252                0.986511376     -106.373784
9.253                0.986481198     -106.563018
9.254                0.986450984     -106.752705
9.255                0.986420733     -106.942846
9.256                0.986390446     -107.133443
9.257                0.986360124     -107.324496
9.258                0.986329767     -107.516005
9.259                0.986299375     -107.707972
9.26                  0.98626895     -107.900396
9.261                0.986238491     -108.093278
9.262                0.986207999     -108.286619
9.263                0.986177474     -108.480419
9.264                0.986146918      -108.67468
9.265                0.986116331     -108.869401
9.266                0.986085713     -109.064583
9.267                0.986055065     -109.260227
9.268                0.986024388     -109.456333
9.269                0.985993681     -109.652902
9.27                 0.985962946     -109.849934
9.271                0.985932184      -110.04743
9.272                0.985901394      -110.24539
9.273                0.985870578     -110.443815
9.274                0.985839736     -110.642705
9.275                0.985808869     -110.842061
9.276                0.985777977     -111.041883
9.277                0.985747061     -111.242172
9.278                0.985716122     -111.442929
9.279                 0.98568516     -111.644153
9.28                 0.985654176     -111.845844
9.281                 0.98562317     -112.048005
9.282                0.985592144     -112.250634
9.283                0.985561098     -112.453733
9.284                0.985530033     -112.657301
9.285                0.985498949     -112.861339
9.286                0.985467847     -113.065848
9.287                0.985436728     -113.270828
9.288                0.985405593     -113.476279
9.289                0.985374442     -113.682202
9.29                 0.985343276     -113.888596
9.291                0.985312096     -114.095463
9.292                0.985280902     -114.302802
9.293                0.985249695     -114.510614
9.294                0.985218477       -114.7189
9.295                0.985187247     -114.927659
9.296                0.985156007     -115.136891
9.297                0.985124758     -115.346598
9.298                0.985093499     -115.556778
9.299                0.985062233     -115.767434
9.3                  0.985030959     -115.978564
9.301                0.984999679     -116.190168
9.302                0.984968394     -116.402248
9.303                0.984937104     -116.614804
9.304                 0.98490581     -116.827835
9.305                0.984874513     -117.041341
9.306                0.984843214     -117.255324
9.307                0.984811913     -117.469782
9.308                0.984780613     -117.684717
9.309                0.984749313     -117.900127
9.31                 0.984718014     -118.116015
9.311                0.984686717     -118.332378
9.312                0.984655424     -118.549218
9.313                0.984624135     -118.766535
9.314                0.984592851     -118.984328
9.315                0.984561573     -119.202599
9.316                0.984530301     -119.421345
9.317                0.984499038     -119.640569
9.318                0.984467784     -119.860269
9.319                0.984436539     -120.080446
9.32                 0.984405305       -120.3011
9.321                0.984374083     -120.522231
9.322                0.984342873     -120.743838
9.323                0.984311677     -120.965921
9.324                0.984280496     -121.188481
9.325                0.984249331     -121.411518
9.326                0.984218182     -121.635031
9.327                0.984187052      -121.85902
9.328                 0.98415594     -122.083485
9.329                0.984124847     -122.308425
9.33                 0.984093776     -122.533842
9.331                0.984062727     -122.759734
9.332                0.984031701     -122.986101
9.333                0.984000698     -123.212943
9.334                0.983969721      -123.44026
9.335                0.983938771     -123.668052
9.336                0.983907847     -123.896318
9.337                0.983876952     -124.125058
9.338                0.983846087     -124.354271
9.339                0.983815252     -124.583959
9.34                 0.983784449     -124.814119
9.341                0.983753679     -125.044752
9.342                0.983722943     -125.275857
9.343                0.983692242     -125.507435
9.344                0.983661578     -125.739484
9.345                0.983630951     -125.972004
9.346                0.983600362     -126.204995
9.347                0.983569814     -126.438457
9.348                0.983539307     -126.672388
9.349                0.983508842     -126.906789
9.35                  0.98347842     -127.141658
9.351                0.983448043     -127.376996
9.352                0.983417712     -127.612802
9.353                0.983387427     -127.849075
9.354                0.983357192     -128.085815
9.355                0.983327005     -128.323021
9.356                 0.98329687     -128.560692
9.357                0.983266786     -128.798829
9.358                0.983236755     -129.037429
9.359                0.983206779     -129.276494
9.36                 0.983176859     -129.516021
9.361                0.983146996      -129.75601
9.362                0.983117191     -129.996461
9.363                0.983087446     -130.237373
9.364                0.983057761     -130.478745
9.365                0.983028139     -130.720576
9.366                 0.98299858     -130.962865
9.367                0.982969086     -131.205613
9.368                0.982939658     -131.448817
9.369                0.982910297     -131.692477
9.37                 0.982881005     -131.936592
9.371                0.982851783     -132.181161
9.372                0.982822632     -132.426184
9.373                0.982793554     -132.671659
9.374                 0.98276455     -132.917585
9.375                0.982735621     -133.163962
9.376                0.982706769     -133.410789
9.377                0.982677996     -133.658064
9.378                0.982649301     -133.905786
9.379                0.982620688     -134.153955
9.38                 0.982592156     -134.402569
9.381                0.982563708     -134.651627
9.382                0.982535345     -134.901129
9.383                0.982507069     -135.151072
9.384                 0.98247888     -135.401457
9.385                 0.98245078     -135.652281
9.386                0.982422771     -135.903543
9.387                0.982394853     -136.155243
9.388                0.982367029     -136.407379
9.389                  0.9823393      -136.65995
9.39                 0.982311667     -136.912954
9.391                0.982284131     -137.166391
9.392                0.982256694     -137.420258
9.393                0.982229357     -137.674555
9.394                0.982202123      -137.92928
9.395                0.982174991     -138.184432
9.396                0.982147965     -138.440009
9.397                0.982121044     -138.696011
9.398                0.982094231     -138.952435
9.399                0.982067526      -139.20928
9.4                  0.982040932     -139.466544
9.401                 0.98201445     -139.724227
9.402                0.981988082     -139.982327
9.403                0.981961827     -140.240841
9.404                 0.98193569     -140.499769
9.405                0.981909669     -140.759108
9.406                0.981883768     -141.018858
9.407                0.981857987     -141.279016
9.408                0.981832328     -141.539582
9.409                0.981806793     -141.800552
9.41                 0.981781382     -142.061926
9.411                0.981756098     -142.323702
9.412                0.981730941     -142.585878
9.413                0.981705914     -142.848452
9.414                0.981681017     -143.111422
9.415                0.981656252     -143.374788
9.416                0.981631621     -143.638546
9.417                0.981607125     -143.902695
9.418                0.981582766     -144.167233
9.419                0.981558544     -144.432158
9.42                 0.981534461     -144.697469
9.421                 0.98151052     -144.963163
9.422                 0.98148672     -145.229238
9.423                0.981463065     -145.495692
9.424                0.981439554     -145.762524
9.425                 0.98141619     -146.029731
9.426                0.981392974     -146.297312
9.427                0.981369907     -146.565263
9.428                0.981346992     -146.833584
9.429                0.981324228     -147.102271
9.43                 0.981301618     -147.371324
9.431                0.981279164     -147.640739
9.432                0.981256866     -147.910514
9.433                0.981234726     -148.180647
9.434                0.981212745     -148.451137
9.435                0.981190925      -148.72198
9.436                0.981169267     -148.993175
9.437                0.981147773     -149.264719
9.438                0.981126444      -149.53661
9.439                0.981105282     -149.808845
9.44                 0.981084287     -150.081423
9.441                0.981063461      -150.35434
9.442                0.981042806     -150.627595
9.443                0.981022322     -150.901184
9.444                0.981002012     -151.175106
9.445                0.980981877     -151.449358
9.446                0.980961918     -151.723938
9.447                0.980942136     -151.998843
9.448                0.980922532      -152.27407
9.449                0.980903109     -152.549617
9.45                 0.980883867     -152.825482
9.451                0.980864808     -153.101661
9.452                0.980845932     -153.378153
9.453                0.980827242     -153.654954
9.454                0.980808739     -153.932062
9.455                0.980790423     -154.209474
9.456                0.980772296     -154.487188
9.457                 0.98075436     -154.765201
9.458                0.980736616     -155.043509
9.459                0.980719065     -155.322111
9.46                 0.980701707     -155.601004
9.461                0.980684546     -155.880185
9.462                0.980667581      -156.15965
9.463                0.980650814     -156.439398
9.464                0.980634245     -156.719425
9.465                0.980617878     -156.999728
9.466                0.980601711     -157.280305
9.467                0.980585748     -157.561153
9.468                0.980569988     -157.842268
9.469                0.980554434     -158.123648
9.47                 0.980539085      -158.40529
9.471                0.980523944     -158.687191
9.472                0.980509011     -158.969348
9.473                0.980494288     -159.251757
9.474                0.980479776     -159.534417
9.475                0.980465475     -159.817323
9.476                0.980451387     -160.100473
9.477                0.980437513     -160.383863
9.478                0.980423854     -160.667491
9.479                0.980410411     -160.951354
9.48                 0.980397185     -161.235448
9.481                0.980384177     -161.519769
9.482                0.980371388     -161.804316
9.483                 0.98035882     -162.089085
9.484                0.980346472     -162.374072
9.485                0.980334346     -162.659275
9.486                0.980322444      -162.94469
9.487                0.980310765     -163.230313
9.488                0.980299311     -163.516143
9.489                0.980288083     -163.802175
9.49                 0.980277081     -164.088405
9.491                0.980266307     -164.374832
9.492                0.980255762     -164.661451
9.493                0.980245445     -164.948259
9.494                0.980235359     -165.235254
9.495                0.980225504      -165.52243
9.496                 0.98021588     -165.809786
9.497                0.980206489     -166.097317
9.498                0.980197332     -166.385021
9.499                0.980188408     -166.672893
9.5                  0.980179719     -166.960931
9.501                0.980171266     -167.249131
9.502                0.980163049      -167.53749
9.503                0.980155069     -167.826004
9.504                0.980147326     -168.114669
9.505                0.980139822     -168.403483
9.506                0.980132557     -168.692441
9.507                0.980125531     -168.981541
9.508                0.980118746     -169.270778
9.509                0.980112201     -169.560149
9.51                 0.980105898     -169.849651
9.511                0.980099837      -170.13928
9.512                0.980094018     -170.429033
9.513                0.980088442     -170.718905
9.514                 0.98008311     -171.008894
9.515                0.980078021     -171.298996
9.516                0.980073177     -171.589207
9.517                0.980068579     -171.879524
9.518                0.980064225     -172.169942
9.519                0.980060117     -172.460459
9.52                 0.980056256     -172.751071
9.521                0.980052641     -173.041774
9.522                0.980049273     -173.332565
9.523                0.980046153     -173.623439
9.524                 0.98004328     -173.914394
9.525                0.980040655     -174.205425
9.526                0.980038278     -174.496529
9.527                 0.98003615     -174.787703
9.528                0.980034271     -175.078942
9.529                0.980032641     -175.370243
9.53                  0.98003126     -175.661602
9.531                0.980030128     -175.953016
9.532                0.980029246     -176.244481
9.533                0.980028614     -176.535993
9.534                0.980028232     -176.827548
9.535                0.980028099     -177.119143
9.536                0.980028217     -177.410775
9.537                0.980028586     -177.702438
9.538                0.980029204     -177.994131
9.539                0.980030073     -178.285848
9.54                 0.980031193     -178.577587
9.541                0.980032562     -178.869343
9.542                0.980034183     -179.161113
9.543                0.980036053     -179.452893
9.544                0.980038174     -179.744679
9.545                0.980040545      179.963532
9.546                0.980043166      179.671744
9.547                0.980046038       179.37996
9.548                0.980049159      179.088185
9.549                 0.98005253      178.796423
9.55                 0.980056151      178.504676
9.551                0.980060022      178.212949
9.552                0.980064141      177.921245
9.553                 0.98006851      177.629568
9.554                0.980073127      177.337922
9.555                0.980077993       177.04631
9.556                0.980083108      176.754737
9.557                 0.98008847      176.463205
9.558                 0.98009408      176.171719
9.559                0.980099937      175.880282
9.56                 0.980106042      175.588898
9.561                0.980112393      175.297571
9.562                 0.98011899      175.006304
9.563                0.980125833      174.715101
9.564                0.980132922      174.423966
9.565                0.980140255      174.132902
9.566                0.980147833      173.841913
9.567                0.980155655      173.551002
9.568                0.980163721      173.260174
9.569                 0.98017203      172.969432
9.57                 0.980180581      172.678779
9.571                0.980189374       172.38822
9.572                0.980198409      172.097757
9.573                0.980207684      171.807395
9.574                  0.9802172      171.517137
9.575                0.980226955      171.226986
9.576                0.980236949      170.936947
9.577                0.980247182      170.647022
9.578                0.980257652      170.357216
9.579                0.980268359      170.067532
9.58                 0.980279302      169.777973
9.581                0.980290481      169.488544
9.582                0.980301895      169.199247
9.583                0.980313542      168.910086
9.584                0.980325423      168.621065
9.585                0.980337537      168.332186
9.586                0.980349882      168.043455
9.587                0.980362458      167.754874
9.588                0.980375264      167.466446
9.589                0.980388299      167.178175
9.59                 0.980401563      166.890065
9.591                0.980415054      166.602119
9.592                0.980428771       166.31434
9.593                0.980442714      166.026732
9.594                0.980456882      165.739298
9.595                0.980471274      165.452042
9.596                0.980485888      165.164967
9.597                0.980500724      164.878076
9.598                0.980515781      164.591373
9.599                0.980531058       164.30486
9.6                  0.980546554      164.018542
9.601                0.980562268      163.732422