! TOUCHSTONE file generated by CST DESIGN STUDIO
! Date and time: Tue Feb  4 15:59:40 2025
! Project name: C:\Work\MatlabApps\UnitCellOptimizationMatlab\CST\unitcell.cst
! Tree item: Tasks\Sweep1\SPara1\S-Parameters
! Header version: 2024
! Port assignment regex: !\s*Touchstone port\s*([0-9]+)\s*=\s*(CST MWS port|CST DES external port|CST DES block port)\s*(.+)\s* \(\"(.*)\"\)(\s*mode\s*([0-9]+))?.*
! Touchstone port assignment:
! Touchstone port 1 = CST DES external port 1 ("")
# GHz S MA R 50
9                    0.975535201     -78.2604642
9.001                0.975471513     -78.3837598
9.002                0.975407627     -78.5073695
9.003                0.975343544     -78.6312944
9.004                0.975279263     -78.7555353
9.005                0.975214784     -78.8800933
9.006                0.975150105     -79.0049692
9.007                0.975085228     -79.1301641
9.008                 0.97502015     -79.2556789
9.009                0.974954873     -79.3815146
9.01                 0.974889395     -79.5076721
9.011                0.974823717     -79.6341523
9.012                0.974757837     -79.7609563
9.013                0.974691755      -79.888085
9.014                0.974625472     -80.0155395
9.015                0.974558986     -80.1433205
9.016                0.974492297     -80.2714292
9.017                0.974425405     -80.3998666
9.018                 0.97435831     -80.5286335
9.019                0.974291011     -80.6577309
9.02                 0.974223507       -80.78716
9.021                0.974155799     -80.9169215
9.022                0.974087885     -81.0470166
9.023                0.974019767     -81.1774462
9.024                0.973951442     -81.3082113
9.025                0.973882912     -81.4393128
9.026                0.973814175     -81.5707519
9.027                0.973745231     -81.7025294
9.028                 0.97367608     -81.8346464
9.029                0.973606721     -81.9671038
9.03                 0.973537155     -82.0999027
9.031                 0.97346738     -82.2330441
9.032                0.973397397     -82.3665289
9.033                0.973327205     -82.5003583
9.034                0.973256804     -82.6345331
9.035                0.973186194     -82.7690543
9.036                0.973115374     -82.9039231
9.037                0.973044344     -83.0391404
9.038                0.972973103     -83.1747072
9.039                0.972901652     -83.3106246
9.04                 0.972829989     -83.4468935
9.041                0.972758116     -83.5835149
9.042                0.972686031       -83.72049
9.043                0.972613734     -83.8578196
9.044                0.972541224     -83.9955049
9.045                0.972468503     -84.1335468
9.046                0.972395569     -84.2719464
9.047                0.972322422     -84.4107047
9.048                0.972249061     -84.5498227
9.049                0.972175488     -84.6893015
9.05                   0.9721017      -84.829142
9.051                0.972027699     -84.9693454
9.052                0.971953484     -85.1099126
9.053                0.971879054     -85.2508447
9.054                0.971804409     -85.3921427
9.055                 0.97172955     -85.5338076
9.056                0.971654476     -85.6758406
9.057                0.971579186     -85.8182425
9.058                0.971503681     -85.9610145
9.059                 0.97142796     -86.1041576
9.06                 0.971352024     -86.2476729
9.061                0.971275871     -86.3915613
9.062                0.971199502     -86.5358239
9.063                0.971122917     -86.6804619
9.064                0.971046116     -86.8254761
9.065                0.970969097     -86.9708677
9.066                0.970891862     -87.1166376
9.067                 0.97081441     -87.2627871
9.068                0.970736741      -87.409317
9.069                0.970658854     -87.5562285
9.07                  0.97058075     -87.7035225
9.071                0.970502429     -87.8512002
9.072                 0.97042389     -87.9992626
9.073                0.970345133     -88.1477108
9.074                0.970266158     -88.2965457
9.075                0.970186966     -88.4457685
9.076                0.970107555     -88.5953802
9.077                0.970027927     -88.7453818
9.078                0.969948081     -88.8957744
9.079                0.969868016     -89.0465591
9.08                 0.969787733     -89.1977369
9.081                0.969707232     -89.3493088
9.082                0.969626513      -89.501276
9.083                0.969545575     -89.6536395
9.084                0.969464419     -89.8064002
9.085                0.969383045     -89.9595594
9.086                0.969301452      -90.113118
9.087                0.969219642     -90.2670771
9.088                0.969137613     -90.4214377
9.089                0.969055365     -90.5762009
9.09                   0.9689729     -90.7313678
9.091                0.968890216     -90.8869394
9.092                0.968807315     -91.0429167
9.093                0.968724195     -91.1993009
9.094                0.968640858     -91.3560929
9.095                0.968557302     -91.5132938
9.096                0.968473529     -91.6709047
9.097                0.968389539     -91.8289267
9.098                 0.96830533     -91.9873607
9.099                0.968220905     -92.1462078
9.1                  0.968136262     -92.3054691
9.101                0.968051402     -92.4651457
9.102                0.967966325     -92.6252385
9.103                0.967881032     -92.7857486
9.104                0.967795522     -92.9466771
9.105                0.967709795     -93.1080251
9.106                0.967623853     -93.2697935
9.107                0.967537694     -93.4319834
9.108                 0.96745132     -93.5945958
9.109                 0.96736473     -93.7576319
9.11                 0.967277926     -93.9210925
9.111                0.967190906     -94.0849789
9.112                0.967103671      -94.249292
9.113                0.967016223     -94.4140328
9.114                 0.96692856     -94.5792024
9.115                0.966840683     -94.7448018
9.116                0.966752593     -94.9108321
9.117                 0.96666429     -95.0772942
9.118                0.966575774     -95.2441893
9.119                0.966487046     -95.4115183
9.12                 0.966398105     -95.5792823
9.121                0.966308954     -95.7474823
9.122                0.966219591     -95.9161193
9.123                0.966130017     -96.0851943
9.124                0.966040233     -96.2547084
9.125                0.965950239     -96.4246626
9.126                0.965860035     -96.5950578
9.127                0.965769623     -96.7658951
9.128                0.965679002     -96.9371755
9.129                0.965588173     -97.1089001
9.13                 0.965497137     -97.2810698
9.131                0.965405894     -97.4536855
9.132                0.965314445     -97.6267484
9.133                 0.96522279     -97.8002594
9.134                0.965130929     -97.9742196
9.135                0.965038864     -98.1486298
9.136                0.964946595     -98.3234911
9.137                0.964854123     -98.4988044
9.138                0.964761448     -98.6745709
9.139                0.964668571     -98.8507913
9.14                 0.964575492     -99.0274668
9.141                0.964482213     -99.2045982
9.142                0.964388734     -99.3821866
9.143                0.964295055     -99.5602329
9.144                0.964201178     -99.7387381
9.145                0.964107104     -99.9177031
9.146                0.964012832     -100.097129
9.147                0.963918364     -100.277016
9.148                0.963823701     -100.457367
9.149                0.963728843      -100.63818
9.15                 0.963633792     -100.819459
9.151                0.963538547     -101.001203
9.152                0.963443111     -101.183413
9.153                0.963347484     -101.366091
9.154                0.963251666     -101.549237
9.155                 0.96315566     -101.732852
9.156                0.963059465     -101.916937
9.157                0.962963083     -102.101493
9.158                0.962866514     -102.286522
9.159                 0.96276976     -102.472023
9.16                 0.962672823     -102.657997
9.161                0.962575701     -102.844446
9.162                0.962478398     -103.031371
9.163                0.962380914     -103.218772
9.164                 0.96228325     -103.406651
9.165                0.962185407     -103.595007
9.166                0.962087387     -103.783842
9.167                 0.96198919     -103.973157
9.168                0.961890818     -104.162953
9.169                0.961792272      -104.35323
9.17                 0.961693553      -104.54399
9.171                0.961594662     -104.735233
9.172                0.961495602     -104.926959
9.173                0.961396372     -105.119171
9.174                0.961296975     -105.311868
9.175                0.961197411     -105.505051
9.176                0.961097683     -105.698722
9.177                0.960997791     -105.892881
9.178                0.960897737     -106.087528
9.179                0.960797522     -106.282665
9.18                 0.960697148     -106.478293
9.181                0.960596616     -106.674411
9.182                0.960495928     -106.871021
9.183                0.960395085     -107.068124
9.184                0.960294089      -107.26572
9.185                0.960192942     -107.463811
9.186                0.960091644     -107.662396
9.187                0.959990198     -107.861476
9.188                0.959888606     -108.061053
9.189                0.959786868     -108.261127
9.19                 0.959684987     -108.461698
9.191                0.959582964     -108.662768
9.192                0.959480801     -108.864336
9.193                  0.9593785     -109.066405
9.194                0.959276062     -109.268973
9.195                 0.95917349     -109.472042
9.196                0.959070785     -109.675613
9.197                 0.95896795     -109.879687
9.198                0.958864985     -110.084263
9.199                0.958761893     -110.289342
9.2                  0.958658676     -110.494925
9.201                0.958555336     -110.701014
9.202                0.958451875     -110.907607
9.203                0.958348295     -111.114706
9.204                0.958244597     -111.322311
9.205                0.958140784     -111.530424
9.206                0.958036859     -111.739043
9.207                0.957932822     -111.948171
9.208                0.957828677     -112.157807
9.209                0.957724425     -112.367953
9.21                 0.957620069     -112.578607
9.211                0.957515611     -112.789772
9.212                0.957411053     -113.001447
9.213                0.957306398     -113.213633
9.214                0.957201647     -113.426331
9.215                0.957096803      -113.63954
9.216                0.956991869     -113.853261
9.217                0.956886846     -114.067495
9.218                0.956781738     -114.282243
9.219                0.956676546     -114.497503
9.22                 0.956571274     -114.713278
9.221                0.956465923     -114.929567
9.222                0.956360497      -115.14637
9.223                0.956254997     -115.363688
9.224                0.956149427     -115.581522
9.225                0.956043788     -115.799871
9.226                0.955938085     -116.018735
9.227                0.955832318     -116.238116
9.228                0.955726492     -116.458014
9.229                0.955620608     -116.678428
9.23                  0.95551467     -116.899359
9.231                 0.95540868     -117.120807
9.232                0.955302641     -117.342773
9.233                0.955196555     -117.565256
9.234                0.955090427     -117.788258
9.235                0.954984259     -118.011777
9.236                0.954878053     -118.235814
9.237                0.954771812      -118.46037
9.238                 0.95466554     -118.685444
9.239                 0.95455924     -118.911036
9.24                 0.954452914     -119.137147
9.241                0.954346566     -119.363777
9.242                0.954240199     -119.590926
9.243                0.954133816     -119.818594
9.244                 0.95402742      -120.04678
9.245                0.953921014     -120.275486
9.246                0.953814602      -120.50471
9.247                0.953708186     -120.734454
9.248                0.953601771     -120.964716
9.249                0.953495358     -121.195497
9.25                 0.953388953     -121.426797
9.251                0.953282557     -121.658616
9.252                0.953176175     -121.890954
9.253                 0.95306981      -122.12381
9.254                0.952963465     -122.357184
9.255                0.952857144     -122.591077
9.256                0.952750851     -122.825488
9.257                0.952644588     -123.060417
9.258                0.952538359     -123.295864
9.259                0.952432169     -123.531828
9.26                  0.95232602     -123.768309
9.261                0.952219917     -124.005308
9.262                0.952113862     -124.242823
9.263                 0.95200786     -124.480855
9.264                0.951901915     -124.719403
9.265                 0.95179603     -124.958467
9.266                0.951690208     -125.198047
9.267                0.951584455     -125.438142
9.268                0.951478773     -125.678751
9.269                0.951373167     -125.919875
9.27                  0.95126764     -126.161513
9.271                0.951162197     -126.403664
9.272                0.951056841     -126.646329
9.273                0.950951576     -126.889506
9.274                0.950846407     -127.133195
9.275                0.950741337     -127.377395
9.276                 0.95063637     -127.622107
9.277                0.950531511     -127.867329
9.278                0.950426764     -128.113061
9.279                0.950322132     -128.359302
9.28                 0.950217621     -128.606052
9.281                0.950113233      -128.85331
9.282                0.950008975     -129.101075
9.283                0.949904848     -129.349346
9.284                0.949800859     -129.598124
9.285                0.949697011     -129.847407
9.286                0.949593309     -130.097194
9.287                0.949489756     -130.347485
9.288                0.949386358     -130.598279
9.289                0.949283118     -130.849574
9.29                 0.949180042     -131.101371
9.291                0.949077133     -131.353668
9.292                0.948974396     -131.606465
9.293                0.948871836      -131.85976
9.294                0.948769457     -132.113553
9.295                0.948667263     -132.367842
9.296                 0.94856526     -132.622627
9.297                0.948463451     -132.877906
9.298                0.948361842      -133.13368
9.299                0.948260436     -133.389945
9.3                   0.94815924     -133.646702
9.301                0.948058256      -133.90395
9.302                 0.94795749     -134.161687
9.303                0.947856947     -134.419911
9.304                0.947756632     -134.678623
9.305                0.947656548     -134.937821
9.306                0.947556702     -135.197503
9.307                0.947457097     -135.457668
9.308                0.947357739     -135.718315
9.309                0.947258631     -135.979443
9.31                  0.94715978      -136.24105
9.311                 0.94706119     -136.503136
9.312                0.946962866     -136.765698
9.313                0.946864813     -137.028735
9.314                0.946767035     -137.292247
9.315                0.946669537      -137.55623
9.316                0.946572325     -137.820685
9.317                0.946475404     -138.085609
9.318                0.946378778     -138.351001
9.319                0.946282452      -138.61686
9.32                 0.946186432     -138.883183
9.321                0.946090721      -139.14997
9.322                0.945995326     -139.417218
9.323                0.945900252     -139.684927
9.324                0.945805503     -139.953093
9.325                0.945711084     -140.221717
9.326                   0.945617     -140.490795
9.327                0.945523257     -140.760327
9.328                 0.94542986     -141.030309
9.329                0.945336813     -141.300742
9.33                 0.945244122     -141.571622
9.331                0.945151792     -141.842949
9.332                0.945059828     -142.114719
9.333                0.944968234     -142.386931
9.334                0.944877017     -142.659584
9.335                0.944786181     -142.932675
9.336                0.944695731     -143.206202
9.337                0.944605673     -143.480164
9.338                0.944516011     -143.754558
9.339                0.944426751     -144.029382
9.34                 0.944337898     -144.304634
9.341                0.944249457     -144.580313
9.342                0.944161432     -144.856415
9.343                 0.94407383     -145.132939
9.344                0.943986656     -145.409882
9.345                0.943899913     -145.687243
9.346                0.943813609     -145.965019
9.347                0.943727746     -146.243207
9.348                0.943642332     -146.521807
9.349                0.943557371     -146.800814
9.35                 0.943472868     -147.080227
9.351                0.943388827     -147.360044
9.352                0.943305255     -147.640262
9.353                0.943222157     -147.920878
9.354                0.943139537     -148.201891
9.355                  0.9430574     -148.483298
9.356                0.942975751     -148.765096
9.357                0.942894597     -149.047282
9.358                0.942813941     -149.329855
9.359                0.942733788     -149.612811
9.36                 0.942654145     -149.896148
9.361                0.942575015     -150.179864
9.362                0.942496404     -150.463956
9.363                0.942418316      -150.74842
9.364                0.942340757     -151.033255
9.365                0.942263732     -151.318457
9.366                0.942187245     -151.604024
9.367                0.942111302     -151.889954
9.368                0.942035907     -152.176242
9.369                0.941961066     -152.462887
9.37                 0.941886782     -152.749886
9.371                0.941813062     -153.037235
9.372                 0.94173991     -153.324932
9.373                 0.94166733     -153.612974
9.374                0.941595327     -153.901358
9.375                0.941523907     -154.190081
9.376                0.941453074      -154.47914
9.377                0.941382832     -154.768531
9.378                0.941313187     -155.058253
9.379                0.941244142     -155.348301
9.38                 0.941175704     -155.638673
9.381                0.941107875     -155.929366
9.382                0.941040662     -156.220376
9.383                0.940974068       -156.5117
9.384                0.940908098     -156.803336
9.385                0.940842756     -157.095279
9.386                0.940778047     -157.387527
9.387                0.940713976     -157.680076
9.388                0.940650546     -157.972924
9.389                0.940587763     -158.266066
9.39                 0.940525629     -158.559499
9.391                0.940464151     -158.853221
9.392                0.940403332     -159.147227
9.393                0.940343176     -159.441515
9.394                0.940283687     -159.736081
9.395                0.940224871     -160.030921
9.396                 0.94016673     -160.326033
9.397                0.940109268     -160.621412
9.398                0.940052491     -160.917055
9.399                0.939996402     -161.212958
9.4                  0.939941004     -161.509119
9.401                0.939886302     -161.805533
9.402                  0.9398323     -162.102197
9.403                0.939779001     -162.399108
9.404                 0.93972641     -162.696261
9.405                 0.93967453     -162.993653
9.406                0.939623364     -163.291281
9.407                0.939572917      -163.58914
9.408                0.939523192     -163.887228
9.409                0.939474193      -164.18554
9.41                 0.939425922     -164.484072
9.411                0.939378385     -164.782822
9.412                0.939331583     -165.081784
9.413                0.939285521     -165.380956
9.414                0.939240201     -165.680334
9.415                0.939195627     -165.979913
9.416                0.939151803      -166.27969
9.417                0.939108731     -166.579662
9.418                0.939066414     -166.879823
9.419                0.939024856     -167.180172
9.42                  0.93898406     -167.480702
9.421                0.938944028     -167.781411
9.422                0.938904764     -168.082295
9.423                0.938866269      -168.38335
9.424                0.938828548     -168.684571
9.425                0.938791603     -168.985956
9.426                0.938755436     -169.287499
9.427                0.938720051     -169.589197
9.428                0.938685449     -169.891046
9.429                0.938651633     -170.193042
9.43                 0.938618606     -170.495181
9.431                 0.93858637     -170.797459
9.432                0.938554927     -171.099872
9.433                 0.93852428     -171.402415
9.434                 0.93849443     -171.705085
9.435                0.938465381     -172.007878
9.436                0.938437134     -172.310789
9.437                0.938409691     -172.613815
9.438                0.938383054     -172.916951
9.439                0.938357225     -173.220193
9.44                 0.938332205     -173.523538
9.441                0.938307997      -173.82698
9.442                0.938284603     -174.130516
9.443                0.938262023     -174.434142
9.444                 0.93824026     -174.737854
9.445                0.938219315     -175.041646
9.446                 0.93819919     -175.345516
9.447                0.938179885     -175.649459
9.448                0.938161403     -175.953471
9.449                0.938143744     -176.257548
9.45                 0.938126909     -176.561685
9.451                0.938110901     -176.865878
9.452                0.938095719     -177.170124
9.453                0.938081365     -177.474417
9.454                 0.93806784     -177.778754
9.455                0.938055144      -178.08313
9.456                0.938043279     -178.387542
9.457                0.938032245     -178.691984
9.458                0.938022043     -178.996454
9.459                0.938012673     -179.300946
9.46                 0.938004136     -179.605456
9.461                0.937996432      -179.90998
9.462                0.937989562      179.785485
9.463                0.937983527      179.480946
9.464                0.937978325      179.176404
9.465                0.937973958      178.871866
9.466                0.937970426      178.567334
9.467                0.937967728      178.262814
9.468                0.937965865       177.95831
9.469                0.937964837      177.653825
9.47                 0.937964643      177.349364
9.471                0.937965283      177.044931
9.472                0.937966758      176.740531
9.473                0.937969065      176.436167
9.474                0.937972206      176.131844
9.475                 0.93797618      175.827567
9.476                0.937980985      175.523338
9.477                0.937986622      175.219163
9.478                 0.93799309      174.915046
9.479                0.938000388      174.610991
9.48                 0.938008515      174.307001
9.481                0.938017471      174.003082
9.482                0.938027253      173.699237
9.483                0.938037863      173.395471
9.484                0.938049297      173.091788
9.485                0.938061555      172.788192
9.486                0.938074636      172.484686
9.487                0.938088539      172.181276
9.488                0.938103262      171.877966
9.489                0.938118804      171.574758
9.49                 0.938135163      171.271659
9.491                0.938152338      170.968671
9.492                0.938170327      170.665799
9.493                0.938189128      170.363047
9.494                0.938208741      170.060419
9.495                0.938229162      169.757919
9.496                 0.93825039      169.455551
9.497                0.938272424      169.153319
9.498                0.938295261      168.851227
9.499                0.938318899       168.54928
9.5                  0.938343336      168.247481
9.501                 0.93836857      167.945834
9.502                0.938394598      167.644344
9.503                0.938421419      167.343014
9.504                 0.93844903      167.041848
9.505                0.938477429       166.74085
9.506                0.938506613      166.440024
9.507                0.938536579      166.139374
9.508                0.938567326      165.838905
9.509                 0.93859885      165.538619
9.51                 0.938631149       165.23852
9.511                 0.93866422      164.938614
9.512                 0.93869806      164.638902
9.513                0.938732666       164.33939
9.514                0.938768036      164.040081
9.515                0.938804167      163.740979
9.516                0.938841055      163.442088
9.517                0.938878698      163.143411
9.518                0.938917092      162.844952
9.519                0.938956234      162.546715
9.52                 0.938996121      162.248704
9.521                 0.93903675      161.950922
9.522                0.939078118      161.653373
9.523                 0.93912022      161.356061
9.524                0.939163054      161.058989
9.525                0.939206616      160.762161
9.526                0.939250903       160.46558
9.527                0.939295911      160.169251
9.528                0.939341637      159.873177
9.529                0.939388076       159.57736
9.53                 0.939435226      159.281806
9.531                0.939483082      158.986517
9.532                0.939531641      158.691496
9.533                0.939580899      158.396748
9.534                0.939630852      158.102276
9.535                0.939681496      157.808082
9.536                0.939732828      157.514172
9.537                0.939784842      157.220547
9.538                0.939837536      156.927211
9.539                0.939890906      156.634168
9.54                 0.939944946      156.341421
9.541                0.939999653      156.048973
9.542                0.940055024      155.756828
9.543                0.940111053      155.464988
9.544                0.940167736      155.173458
9.545                 0.94022507      154.882239
9.546                0.940283049      154.591336
9.547                 0.94034167      154.300752
9.548                0.940400929      154.010489
9.549                 0.94046082      153.720551
9.55                  0.94052134      153.430941
9.551                0.940582484      153.141661
9.552                0.940644247      152.852716
9.553                0.940706625      152.564108
9.554                0.940769614      152.275839
9.555                0.940833209      151.987914
9.556                0.940897405      151.700334
9.557                0.940962198      151.413104
9.558                0.941027584      151.126225
9.559                0.941093556      150.839701
9.56                 0.941160112      150.553534
9.561                0.941227246      150.267727
9.562                0.941294953      149.982283
9.563                0.941363229      149.697206
9.564                0.941432069      149.412496
9.565                0.941501468      149.128159
9.566                0.941571422      148.844195
9.567                0.941641925      148.560607
9.568                0.941712973      148.277399
9.569                0.941784561      147.994574
9.57                 0.941856684      147.712132
9.571                0.941929337      147.430078
9.572                0.942002515      147.148413
9.573                0.942076214       146.86714
9.574                0.942150429      146.586262
9.575                0.942225154      146.305782
9.576                0.942300385        146.0257
9.577                0.942376116      145.746021
9.578                0.942452344      145.466746
9.579                0.942529062      145.187878
9.58                 0.942606266      144.909419
9.581                0.942683951      144.631371
9.582                0.942762112      144.353737
9.583                0.942840744      144.076519
9.584                0.942919841      143.799719
9.585                  0.9429994      143.523339
9.586                0.943079415      143.247382
9.587                 0.94315988      142.971849
9.588                0.943240792      142.696743
9.589                0.943322144      142.422066
9.59                 0.943403933       142.14782
9.591                0.943486152      141.874008
9.592                0.943568797       141.60063
9.593                0.943651863      141.327689
9.594                0.943735344      141.055187
9.595                0.943819237      140.783127
9.596                0.943903535      140.511509
9.597                0.943988234      140.240336
9.598                0.944073329      139.969609
9.599                0.944158815      139.699331
9.6                  0.944244686      139.429503
9.601                0.944330938      139.160128