! TOUCHSTONE file generated by CST DESIGN STUDIO
! Date and time: Tue Feb  4 13:42:07 2025
! Project name: C:\Work\MatlabApps\UnitCellOptimizationMatlab\CST\unitcell.cst
! Tree item: Tasks\Sweep1\SPara1\S-Parameters
! Header version: 2024
! Port assignment regex: !\s*Touchstone port\s*([0-9]+)\s*=\s*(CST MWS port|CST DES external port|CST DES block port)\s*(.+)\s* \(\"(.*)\"\)(\s*mode\s*([0-9]+))?.*
! Touchstone port assignment:
! Touchstone port 1 = CST DES external port 1 ("")
# GHz S MA R 50
9                    0.948896158     -57.7914348
9.001                0.948779866     -57.8719018
9.002                0.948663159     -57.9525599
9.003                0.948546034     -58.0334095
9.004                0.948428491     -58.1144514
9.005                0.948310528     -58.1956862
9.006                0.948192143     -58.2771145
9.007                0.948073334      -58.358737
9.008                0.947954101     -58.4405543
9.009                0.947834441      -58.522567
9.01                 0.947714354     -58.6047758
9.011                0.947593837     -58.6871814
9.012                0.947472889     -58.7697844
9.013                0.947351509     -58.8525854
9.014                0.947229695     -58.9355851
9.015                0.947107445     -59.0187842
9.016                0.946984759     -59.1021833
9.017                0.946861633     -59.1857831
9.018                0.946738067     -59.2695842
9.019                 0.94661406     -59.3535874
9.02                 0.946489609     -59.4377933
9.021                0.946364713     -59.5222025
9.022                0.946239371     -59.6068157
9.023                 0.94611358     -59.6916337
9.024                 0.94598734     -59.7766571
9.025                0.945860648     -59.8618865
9.026                0.945733503     -59.9473227
9.027                0.945605904     -60.0329664
9.028                0.945477849     -60.1188182
9.029                0.945349335     -60.2048789
9.03                 0.945220363     -60.2911491
9.031                0.945090929     -60.3776296
9.032                0.944961032      -60.464321
9.033                0.944830671      -60.551224
9.034                0.944699845     -60.6383394
9.035                 0.94456855     -60.7256678
9.036                0.944436786       -60.81321
9.037                0.944304552     -60.9009667
9.038                0.944171844     -60.9889386
9.039                0.944038663     -61.0771265
9.04                 0.943905005      -61.165531
9.041                 0.94377087     -61.2541528
9.042                0.943636255     -61.3429928
9.043                 0.94350116     -61.4320516
9.044                0.943365582       -61.52133
9.045                0.943229519     -61.6108287
9.046                 0.94309297     -61.7005485
9.047                0.942955934       -61.79049
9.048                0.942818407     -61.8806541
9.049                 0.94268039     -61.9710414
9.05                  0.94254188     -62.0616528
9.051                0.942402875      -62.152489
9.052                0.942263373     -62.2435507
9.053                0.942123374     -62.3348388
9.054                0.941982874     -62.4263539
9.055                0.941841873     -62.5180968
9.056                0.941700369     -62.6100683
9.057                0.941558359     -62.7022692
9.058                0.941415843     -62.7947003
9.059                0.941272818     -62.8873623
9.06                 0.941129282      -62.980256
9.061                0.940985235     -63.0733821
9.062                0.940840673     -63.1667416
9.063                0.940695596     -63.2603351
9.064                0.940550001     -63.3541634
9.065                0.940403887     -63.4482274
9.066                0.940257251     -63.5425278
9.067                0.940110093     -63.6370655
9.068                0.939962411     -63.7318412
9.069                0.939814201     -63.8268558
9.07                 0.939665464       -63.92211
9.071                0.939516196     -64.0176047
9.072                0.939366396     -64.1133407
9.073                0.939216063     -64.2093187
9.074                0.939065194     -64.3055398
9.075                0.938913788     -64.4020045
9.076                0.938761842     -64.4987139
9.077                0.938609356     -64.5956686
9.078                0.938456326     -64.6928696
9.079                0.938302752     -64.7903176
9.08                 0.938148631     -64.8880136
9.081                0.937993962     -64.9859583
9.082                0.937838742     -65.0841527
9.083                 0.93768297     -65.1825974
9.084                0.937526645     -65.2812935
9.085                0.937369763     -65.3802418
9.086                0.937212324      -65.479443
9.087                0.937054325     -65.5788982
9.088                0.936895764     -65.6786081
9.089                0.936736641     -65.7785735
9.09                 0.936576952     -65.8787955
9.091                0.936416695     -65.9792748
9.092                 0.93625587     -66.0800124
9.093                0.936094474      -66.181009
9.094                0.935932505     -66.2822657
9.095                0.935769961     -66.3837832
9.096                0.935606841     -66.4855625
9.097                0.935443142     -66.5876045
9.098                0.935278863       -66.68991
9.099                0.935114001       -66.79248
9.1                  0.934948556     -66.8953153
9.101                0.934782524     -66.9984169
9.102                0.934615904     -67.1017857
9.103                0.934448693     -67.2054225
9.104                0.934280891     -67.3093284
9.105                0.934112496     -67.4135041
9.106                0.933943504     -67.5179508
9.107                0.933773914     -67.6226691
9.108                0.933603725     -67.7276602
9.109                0.933432935     -67.8329249
9.11                 0.933261541     -67.9384642
9.111                0.933089541      -68.044279
9.112                0.932916934     -68.1503702
9.113                0.932743718     -68.2567388
9.114                 0.93256989     -68.3633857
9.115                0.932395449     -68.4703119
9.116                0.932220393     -68.5775184
9.117                 0.93204472     -68.6850061
9.118                0.931868427     -68.7927759
9.119                0.931691514     -68.9008288
9.12                 0.931513977     -69.0091659
9.121                0.931335816      -69.117788
9.122                0.931157027     -69.2266962
9.123                 0.93097761     -69.3358914
9.124                0.930797562     -69.4453746
9.125                0.930616881     -69.5551467
9.126                0.930435565     -69.6652089
9.127                0.930253613      -69.775562
9.128                0.930071021     -69.8862071
9.129                0.929887789     -69.9971452
9.13                 0.929703915     -70.1083772
9.131                0.929519396     -70.2199042
9.132                 0.92933423     -70.3317272
9.133                0.929148416     -70.4438472
9.134                0.928961951     -70.5562652
9.135                0.928774833     -70.6689822
9.136                0.928587062     -70.7819993
9.137                0.928398633     -70.8953175
9.138                0.928209547     -71.0089378
9.139                  0.9280198     -71.1228612
9.14                 0.927829391     -71.2370888
9.141                0.927638317     -71.3516216
9.142                0.927446577     -71.4664607
9.143                0.927254169     -71.5816071
9.144                0.927061091     -71.6970619
9.145                 0.92686734     -71.8128261
9.146                0.926672916     -71.9289007
9.147                0.926477815      -72.045287
9.148                0.926282036     -72.1619858
9.149                0.926085578     -72.2789982
9.15                 0.925888437     -72.3963255
9.151                0.925690612     -72.5139685
9.152                0.925492102     -72.6319285
9.153                0.925292904     -72.7502064
9.154                0.925093016     -72.8688034
9.155                0.924892436     -72.9877205
9.156                0.924691163     -73.1069589
9.157                0.924489194     -73.2265196
9.158                0.924286527     -73.3464038
9.159                0.924083161     -73.4666125
9.16                 0.923879094     -73.5871469
9.161                0.923674323      -73.708008
9.162                0.923468847      -73.829197
9.163                0.923262664      -73.950715
9.164                0.923055772     -74.0725632
9.165                0.922848169     -74.1947425
9.166                0.922639853     -74.3172543
9.167                0.922430822     -74.4400995
9.168                0.922221074     -74.5632794
9.169                0.922010607      -74.686795
9.17                 0.921799421     -74.8106476
9.171                0.921587511     -74.9348382
9.172                0.921374878      -75.059368
9.173                0.921161518     -75.1842382
9.174                 0.92094743     -75.3094499
9.175                0.920732612     -75.4350043
9.176                0.920517063     -75.5609025
9.177                 0.92030078     -75.6871458
9.178                0.920083761     -75.8137352
9.179                0.919866005     -75.9406719
9.18                  0.91964751     -76.0679572
9.181                0.919428274     -76.1955922
9.182                0.919208295      -76.323578
9.183                0.918987571      -76.451916
9.184                0.918766101     -76.5806072
9.185                0.918543883     -76.7096529
9.186                0.918320914     -76.8390542
9.187                0.918097194     -76.9688124
9.188                0.917872721     -77.0989287
9.189                0.917647491     -77.2294042
9.19                 0.917421505     -77.3602403
9.191                 0.91719476      -77.491438
9.192                0.916967254     -77.6229986
9.193                0.916738986     -77.7549234
9.194                0.916509954     -77.8872135
9.195                0.916280156     -78.0198702
9.196                0.916049591     -78.1528948
9.197                0.915818256     -78.2862884
9.198                0.915586151     -78.4200523
9.199                0.915353273     -78.5541877
9.2                   0.91511962     -78.6886959
9.201                0.914885192     -78.8235782
9.202                0.914649987     -78.9588357
9.203                0.914414002     -79.0944698
9.204                0.914177237     -79.2304816
9.205                0.913939689     -79.3668725
9.206                0.913701358     -79.5036437
9.207                 0.91346224     -79.6407966
9.208                0.913222336     -79.7783322
9.209                0.912981644     -79.9162521
9.21                 0.912740161     -80.0545573
9.211                0.912497886     -80.1932492
9.212                0.912254819     -80.3323291
9.213                0.912010956     -80.4717982
9.214                0.911766298     -80.6116579
9.215                0.911520842     -80.7519095
9.216                0.911274587     -80.8925542
9.217                0.911027531     -81.0335933
9.218                0.910779674     -81.1750282
9.219                0.910531013     -81.3168601
9.22                 0.910281548     -81.4590904
9.221                0.910031276     -81.6017204
9.222                0.909780198     -81.7447513
9.223                 0.90952831     -81.8881846
9.224                0.909275613     -82.0320214
9.225                0.909022104     -82.1762632
9.226                0.908767783     -82.3209113
9.227                0.908512648      -82.465967
9.228                0.908256698     -82.6114316
9.229                0.907999932     -82.7573065
9.23                 0.907742348      -82.903593
9.231                0.907483945     -83.0502925
9.232                0.907224723     -83.1974062
9.233                 0.90696468     -83.3449356
9.234                0.906703815      -83.492882
9.235                0.906442127     -83.6412467
9.236                0.906179615     -83.7900311
9.237                0.905916277     -83.9392365
9.238                0.905652114     -84.0888644
9.239                0.905387123      -84.238916
9.24                 0.905121304     -84.3893928
9.241                0.904854656     -84.5402961
9.242                0.904587178     -84.6916272
9.243                0.904318869     -84.8433876
9.244                0.904049728     -84.9955786
9.245                0.903779754     -85.1482016
9.246                0.903508947      -85.301258
9.247                0.903237306     -85.4547491
9.248                 0.90296483     -85.6086764
9.249                0.902691518     -85.7630412
9.25                  0.90241737     -85.9178449
9.251                0.902142385      -86.073089
9.252                0.901866562     -86.2287747
9.253                  0.9015899     -86.3849035
9.254                  0.9013124     -86.5414768
9.255                 0.90103406      -86.698496
9.256                0.900754881     -86.8559625
9.257                 0.90047486     -87.0138777
9.258                0.900193999      -87.172243
9.259                0.899912297     -87.3310598
9.26                 0.899629752     -87.4903295
9.261                0.899346366     -87.6500536
9.262                0.899062137     -87.8102333
9.263                0.898777065     -87.9708702
9.264                0.898491151     -88.1319657
9.265                0.898204393     -88.2935212
9.266                0.897916792     -88.4555381
9.267                0.897628347     -88.6180178
9.268                0.897339059     -88.7809617
9.269                0.897048927     -88.9443713
9.27                 0.896757951      -89.108248
9.271                0.896466132     -89.2725933
9.272                0.896173469     -89.4374084
9.273                0.895879962      -89.602695
9.274                0.895585612     -89.7684543
9.275                0.895290419     -89.9346879
9.276                0.894994382     -90.1013971
9.277                0.894697503     -90.2685834
9.278                0.894399781     -90.4362483
9.279                0.894101217     -90.6043931
9.28                 0.893801812     -90.7730193
9.281                0.893501565     -90.9421284
9.282                0.893200477     -91.1117217
9.283                0.892898549     -91.2818007
9.284                0.892595781     -91.4523669
9.285                0.892292174     -91.6234216
9.286                0.891987728     -91.7949664
9.287                0.891682445     -91.9670026
9.288                0.891376324     -92.1395318
9.289                0.891069368     -92.3125553
9.29                 0.890761576     -92.4860745
9.291                 0.89045295      -92.660091
9.292                 0.89014349     -92.8346061
9.293                0.889833198     -93.0096213
9.294                0.889522075     -93.1851381
9.295                0.889210121     -93.3611578
9.296                0.888897338      -93.537682
9.297                0.888583728      -93.714712
9.298                0.888269291     -93.8922493
9.299                0.887954029     -94.0702954
9.3                  0.887637943     -94.2488516
9.301                0.887321035     -94.4279194
9.302                0.887003306     -94.6075002
9.303                0.886684758     -94.7875956
9.304                0.886365393     -94.9682068
9.305                0.886045212     -95.1493354
9.306                0.885724217     -95.3309828
9.307                0.885402409     -95.5131503
9.308                0.885079792     -95.6958395
9.309                0.884756366     -95.8790518
9.31                 0.884432134     -96.0627886
9.311                0.884107098     -96.2470513
9.312                 0.88378126     -96.4318413
9.313                0.883454622     -96.6171601
9.314                0.883127186     -96.8030091
9.315                0.882798956     -96.9893897
9.316                0.882469933     -97.1763034
9.317                0.882140119     -97.3637514
9.318                0.881809518     -97.5517354
9.319                0.881478133     -97.7402565
9.32                 0.881145965     -97.9293164
9.321                0.880813018     -98.1189163
9.322                0.880479294     -98.3090578
9.323                0.880144798     -98.4997421
9.324                 0.87980953     -98.6909707
9.325                0.879473495      -98.882745
9.326                0.879136697     -99.0750663
9.327                0.878799137     -99.2679361
9.328                 0.87846082     -99.4613558
9.329                0.878121749     -99.6553267
9.33                 0.877781928     -99.8498502
9.331                 0.87744136     -100.044928
9.332                0.877100049     -100.240561
9.333                0.876757998      -100.43675
9.334                0.876415213     -100.633498
9.335                0.876071696     -100.830805
9.336                0.875727451     -101.028673
9.337                0.875382483     -101.227103
9.338                0.875036797     -101.426097
9.339                0.874690396     -101.625656
9.34                 0.874343285     -101.825781
9.341                0.873995469     -102.026473
9.342                0.873646951     -102.227734
9.343                0.873297738     -102.429566
9.344                0.872947834     -102.631969
9.345                0.872597243     -102.834945
9.346                0.872245971     -103.038495
9.347                0.871894024     -103.242621
9.348                0.871541406     -103.447324
9.349                0.871188123     -103.652604
9.35                  0.87083418     -103.858465
9.351                0.870479583     -104.064905
9.352                0.870124338     -104.271928
9.353                0.869768452     -104.479534
9.354                0.869411928     -104.687725
9.355                0.869054775     -104.896501
9.356                0.868696999     -105.105865
9.357                0.868338605     -105.315817
9.358                  0.8679796     -105.526358
9.359                0.867619992     -105.737491
9.36                 0.867259787     -105.949215
9.361                0.866898991     -106.161533
9.362                0.866537613     -106.374446
9.363                0.866175659     -106.587954
9.364                0.865813138      -106.80206
9.365                0.865450056     -107.016763
9.366                0.865086422     -107.232066
9.367                0.864722243      -107.44797
9.368                0.864357529     -107.664476
9.369                0.863992286     -107.881585
9.37                 0.863626525     -108.099298
9.371                0.863260253     -108.317616
9.372                0.862893481     -108.536542
9.373                0.862526216     -108.756075
9.374                0.862158469     -108.976217
9.375                 0.86179025      -109.19697
9.376                0.861421569     -109.418333
9.377                0.861052435      -109.64031
9.378                 0.86068286       -109.8629
9.379                0.860312855     -110.086105
9.38                 0.859942431     -110.309926
9.381                0.859571599     -110.534364
9.382                0.859200373     -110.759421
9.383                0.858828763     -110.985098
9.384                0.858456783     -111.211395
9.385                0.858084447     -111.438314
9.386                0.857711769     -111.665856
9.387                0.857338762     -111.894023
9.388                0.856965442     -112.122815
9.389                0.856591824     -112.352234
9.39                 0.856217926     -112.582281
9.391                0.855843764     -112.812957
9.392                0.855469356     -113.044263
9.393                0.855094721     -113.276201
9.394                0.854719879     -113.508772
9.395                0.854344851     -113.741978
9.396                 0.85396966     -113.975818
9.397                 0.85359433     -114.210296
9.398                0.853218886     -114.445413
9.399                0.852843355     -114.681169
9.4                  0.852467766     -114.917567
9.401                0.852092151     -115.154607
9.402                0.851716545     -115.392292
9.403                0.851340984     -115.630623
9.404                 0.85096551     -115.869602
9.405                0.850590165      -116.10923
9.406                0.850215001      -116.34951
9.407                 0.84984007     -116.590444
9.408                0.849465434     -116.832034
9.409                 0.84909116     -117.074281
9.41                 0.848717325     -117.317189
9.411                0.848344015      -117.56076
9.412                0.847971329     -117.804996
9.413                0.847599379       -118.0499
9.414                0.847228296     -118.295475
9.415                0.846858233     -118.541725
9.416                0.846489365     -118.788652
9.417                0.846121903     -119.036259
9.418                0.845756094      -119.28455
9.419                0.845392236     -119.533527
9.42                 0.845030688     -119.783192
9.421                0.844671884     -120.033547
9.422                 0.84431636     -120.284591
9.423                0.843964774     -120.536319
9.424                0.843617946     -120.788724
9.425                0.843276905     -121.041789
9.426                0.842942941     -121.295484
9.427                0.842617681     -121.549759
9.428                0.842303166     -121.804532
9.429                0.842001916     -122.059663
9.43                  0.84171693     -122.314925
9.431                0.841451492     -122.569947
9.432                0.841208446     -122.824133
9.433                0.840988316     -123.076556
9.434                0.840785109     -123.325888
9.435                0.840578772     -123.570548
9.436                0.840326605     -123.809461
9.437                0.839966195     -124.043735
9.438                0.839449263     -124.278059
9.439                0.838791423     -124.518964
9.44                 0.838071689     -124.770245
9.441                0.837372007     -125.031028
9.442                0.836733835     -125.298063
9.443                0.836162252     -125.568338
9.444                0.835646051     -125.839961
9.445                0.835171116     -126.111978
9.446                0.834725519     -126.383998
9.447                 0.83430044     -126.655915
9.448                0.833889703     -126.927748
9.449                 0.83348907     -127.199569
9.45                 0.833095645     -127.471458
9.451                0.832707442     -127.743498
9.452                 0.83232309     -128.015758
9.453                0.831941636     -128.288299
9.454                0.831562407     -128.561174
9.455                 0.83118493     -128.834425
9.456                0.830808868     -129.108087
9.457                 0.83043398      -129.38219
9.458                0.830060093     -129.656759
9.459                0.829687086     -129.931815
9.46                 0.829314871     -130.207374
9.461                0.828943389     -130.483452
9.462                  0.8285726     -130.760059
9.463                0.828202478     -131.037207
9.464                0.827833007     -131.314904
9.465                0.827464183     -131.593157
9.466                0.827096004     -131.871973
9.467                0.826728476     -132.151356
9.468                0.826361606     -132.431311
9.469                0.825995407     -132.711842
9.47                 0.825629891     -132.992951
9.471                0.825265074     -133.274641
9.472                0.824900973     -133.556915
9.473                0.824537606     -133.839773
9.474                 0.82417499     -134.123217
9.475                0.823813145     -134.407248
9.476                0.823452091     -134.691868
9.477                0.823091848     -134.977075
9.478                0.822732436     -135.262871
9.479                0.822373876     -135.549256
9.48                 0.822016189     -135.836229
9.481                0.821659395     -136.123791
9.482                0.821303515      -136.41194
9.483                0.820948572     -136.700677
9.484                0.820594586         -136.99
9.485                0.820241578     -137.279909
9.486                 0.81988957     -137.570403
9.487                0.819538583      -137.86148
9.488                0.819188639      -138.15314
9.489                0.818839758     -138.445382
9.49                 0.818491964     -138.738203
9.491                0.818145276     -139.031604
9.492                0.817799717     -139.325581
9.493                0.817455307     -139.620135
9.494                0.817112069     -139.915263
9.495                0.816770024     -140.210963
9.496                0.816429194     -140.507234
9.497                0.816089599     -140.804073
9.498                0.815751261      -141.10148
9.499                0.815414202     -141.399452
9.5                  0.815078443     -141.697987
9.501                0.814744006     -141.997083
9.502                0.814410913     -142.296738
9.503                0.814079183      -142.59695
9.504                 0.81374884     -142.897716
9.505                0.813419904     -143.199034
9.506                0.813092397     -143.500903
9.507                 0.81276634     -143.803319
9.508                0.812441755      -144.10628
9.509                0.812118662     -144.409784
9.51                 0.811797084     -144.713828
9.511                0.811477041      -145.01841
9.512                0.811158556     -145.323527
9.513                0.810841648     -145.629175
9.514                 0.81052634     -145.935354
9.515                0.810212652     -146.242059
9.516                0.809900607     -146.549288
9.517                0.809590224     -146.857038
9.518                0.809281525     -147.165306
9.519                0.808974532     -147.474089
9.52                 0.808669264     -147.783385
9.521                0.808365744      -148.09319
9.522                0.808063992       -148.4035
9.523                0.807764029     -148.714314
9.524                0.807465876     -149.025627
9.525                0.807169554     -149.337436
9.526                0.806875084     -149.649739
9.527                0.806582485     -149.962531
9.528                 0.80629178      -150.27581
9.529                0.806002988     -150.589572
9.53                  0.80571613     -150.903813
9.531                0.805431226     -151.218531
9.532                0.805148297     -151.533721
9.533                0.804867364      -151.84938
9.534                0.804588446     -152.165504
9.535                0.804311563      -152.48209
9.536                0.804036736     -152.799133
9.537                0.803763984     -153.116631
9.538                0.803493328     -153.434579
9.539                0.803224787     -153.752973
9.54                 0.802958381      -154.07181
9.541                 0.80269413     -154.391086
9.542                0.802432052     -154.710796
9.543                0.802172169     -155.030937
9.544                0.801914497     -155.351504
9.545                0.801659058     -155.672494
9.546                 0.80140587     -155.993903
9.547                0.801154952     -156.315725
9.548                0.800906323     -156.637957
9.549                0.800660001     -156.960596
9.55                 0.800416005     -157.283635
9.551                0.800174354     -157.607071
9.552                0.799935065     -157.930901
9.553                0.799698158     -158.255118
9.554                 0.79946365     -158.579719
9.555                0.799231558       -158.9047
9.556                0.799001902     -159.230055
9.557                0.798774697     -159.555781
9.558                0.798549963     -159.881872
9.559                0.798327715     -160.208324
9.56                 0.798107972     -160.535132
9.561                0.797890749     -160.862292
9.562                0.797676065     -161.189799
9.563                0.797463935     -161.517648
9.564                0.797254376     -161.845834
9.565                0.797047405     -162.174352
9.566                0.796843036     -162.503198
9.567                0.796641287     -162.832367
9.568                0.796442173     -163.161853
9.569                 0.79624571     -163.491652
9.57                 0.796051913     -163.821758
9.571                0.795860796     -164.152167
9.572                0.795672376     -164.482874
9.573                0.795486667     -164.813872
9.574                0.795303683     -165.145158
9.575                0.795123438     -165.476726
9.576                0.794945948     -165.808571
9.577                0.794771225     -166.140687
9.578                0.794599284      -166.47307
9.579                0.794430138     -166.805714
9.58                   0.7942638     -167.138613
9.581                0.794100284     -167.471763
9.582                0.793939602     -167.805158
9.583                0.793781766     -168.138792
9.584                 0.79362679     -168.472661
9.585                0.793474685     -168.806758
9.586                0.793325463     -169.141078
9.587                0.793179137     -169.475616
9.588                0.793035716     -169.810366
9.589                0.792895213     -170.145323
9.59                 0.792757638     -170.480481
9.591                0.792623003     -170.815835
9.592                0.792491317     -171.151378
9.593                0.792362591     -171.487105
9.594                0.792236834     -171.823011
9.595                0.792114057      -172.15909
9.596                0.791994269     -172.495336
9.597                0.791877478     -172.831743
9.598                0.791763694     -173.168306
9.599                0.791652926     -173.505019
9.6                  0.791545181     -173.841876
9.601                0.791440469     -174.178872