! TOUCHSTONE file generated by CST DESIGN STUDIO
! Date and time: Tue Feb  4 17:57:24 2025
! Project name: C:\Work\MatlabApps\UnitCellOptimizationMatlab\CST\unitcell.cst
! Tree item: Tasks\Sweep1\SPara1\S-Parameters
! Header version: 2024
! Port assignment regex: !\s*Touchstone port\s*([0-9]+)\s*=\s*(CST MWS port|CST DES external port|CST DES block port)\s*(.+)\s* \(\"(.*)\"\)(\s*mode\s*([0-9]+))?.*
! Touchstone port assignment:
! Touchstone port 1 = CST DES external port 1 ("")
# GHz S MA R 50
9                    0.918400652     -88.9088034
9.001                0.918188008     -89.0843673
9.002                0.917974233     -89.2604856
9.003                0.917759321     -89.4371602
9.004                0.917543269     -89.6143927
9.005                0.917326072     -89.7921851
9.006                0.917107726     -89.9705389
9.007                0.916888227     -90.1494561
9.008                0.916667572     -90.3289383
9.009                0.916445754     -90.5089875
9.01                 0.916222772     -90.6896052
9.011                0.915998621     -90.8707934
9.012                0.915773296     -91.0525537
9.013                0.915546794      -91.234888
9.014                0.915319111      -91.417798
9.015                0.915090242     -91.6012856
9.016                0.914860185     -91.7853524
9.017                0.914628935     -91.9700002
9.018                0.914396489     -92.1552308
9.019                0.914162842     -92.3410461
9.02                 0.913927991     -92.5274476
9.021                0.913691933     -92.7144373
9.022                0.913454663     -92.9020169
9.023                0.913216178     -93.0901881
9.024                0.912976474     -93.2789526
9.025                0.912735549     -93.4683124
9.026                0.912493398     -93.6582691
9.027                0.912250017     -93.8488244
9.028                0.912005405     -94.0399801
9.029                0.911759556      -94.231738
9.03                 0.911512469     -94.4240999
9.031                0.911264139     -94.6170674
9.032                0.911014564     -94.8106423
9.033                 0.91076374     -95.0048264
9.034                0.910511664     -95.1996213
9.035                0.910258334     -95.3950289
9.036                0.910003746     -95.5910508
9.037                0.909747897     -95.7876887
9.038                0.909490784     -95.9849445
9.039                0.909232405     -96.1828198
9.04                 0.908972756     -96.3813163
9.041                0.908711836     -96.5804358
9.042                0.908449641     -96.7801799
9.043                0.908186169     -96.9805504
9.044                0.907921418     -97.1815489
9.045                0.907655384     -97.3831771
9.046                0.907388066     -97.5854368
9.047                0.907119461     -97.7883297
9.048                0.906849567     -97.9918573
9.049                0.906578382     -98.1960213
9.05                 0.906305903     -98.4008236
9.051                0.906032129     -98.6062656
9.052                0.905757058     -98.8123491
9.053                0.905480687     -99.0190756
9.054                0.905203016      -99.226447
9.055                0.904924042     -99.4344647
9.056                0.904643763     -99.6431304
9.057                0.904362179     -99.8524458
9.058                0.904079287     -100.062412
9.059                0.903795086     -100.273032
9.06                 0.903509575     -100.484306
9.061                0.903222753     -100.696236
9.062                0.902934619     -100.908824
9.063                 0.90264517     -101.122071
9.064                0.902354408     -101.335979
9.065                 0.90206233     -101.550549
9.066                0.901768936     -101.765783
9.067                0.901474225     -101.981682
9.068                0.901178197     -102.198249
9.069                0.900880851     -102.415484
9.07                 0.900582187     -102.633389
9.071                0.900282205     -102.851966
9.072                0.899980904     -103.071216
9.073                0.899678284      -103.29114
9.074                0.899374345      -103.51174
9.075                0.899069088     -103.733018
9.076                0.898762513     -103.954975
9.077                 0.89845462     -104.177613
9.078                 0.89814541     -104.400932
9.079                0.897834883     -104.624934
9.08                  0.89752304     -104.849621
9.081                0.897209882     -105.074995
9.082                0.896895409     -105.301055
9.083                0.896579624     -105.527805
9.084                0.896262526     -105.755245
9.085                0.895944118     -105.983376
9.086                0.895624401       -106.2122
9.087                0.895303376     -106.441719
9.088                0.894981045     -106.671933
9.089                 0.89465741     -106.902844
9.09                 0.894332473     -107.134453
9.091                0.894006236     -107.366762
9.092                0.893678701     -107.599771
9.093                0.893349871     -107.833482
9.094                0.893019748     -108.067896
9.095                0.892688335     -108.303015
9.096                0.892355634     -108.538839
9.097                0.892021649      -108.77537
9.098                0.891686382     -109.012609
9.099                0.891349838     -109.250557
9.1                  0.891012018     -109.489215
9.101                0.890672927     -109.728584
9.102                0.890332569     -109.968666
9.103                0.889990947     -110.209461
9.104                0.889648065     -110.450971
9.105                0.889303928     -110.693196
9.106                0.888958539     -110.936138
9.107                0.888611904     -111.179797
9.108                0.888264026     -111.424175
9.109                0.887914911     -111.669273
9.11                 0.887564563     -111.915091
9.111                0.887212988      -112.16163
9.112                0.886860191     -112.408892
9.113                0.886506177     -112.656878
9.114                0.886150952     -112.905587
9.115                0.885794522     -113.155021
9.116                0.885436893     -113.405181
9.117                0.885078071     -113.656068
9.118                0.884718062     -113.907682
9.119                0.884356873     -114.160024
9.12                  0.88399451     -114.413095
9.121                 0.88363098     -114.666895
9.122                0.883266291     -114.921426
9.123                 0.88290045     -115.176688
9.124                0.882533463     -115.432681
9.125                0.882165339     -115.689407
9.126                0.881796085     -115.946865
9.127                 0.88142571     -116.205057
9.128                0.881054221     -116.463982
9.129                0.880681627     -116.723642
9.13                 0.880307936     -116.984037
9.131                0.879933157     -117.245168
9.132                  0.8795573     -117.507034
9.133                0.879180373     -117.769637
9.134                0.878802385     -118.032976
9.135                0.878423347     -118.297052
9.136                0.878043267     -118.561866
9.137                0.877662156     -118.827417
9.138                0.877280024     -119.093706
9.139                0.876896882     -119.360734
9.14                 0.876512739       -119.6285
9.141                0.876127607     -119.897004
9.142                0.875741496     -120.166247
9.143                0.875354418     -120.436229
9.144                0.874966384     -120.706951
9.145                0.874577406     -120.978411
9.146                0.874187496      -121.25061
9.147                0.873796665     -121.523548
9.148                0.873404926     -121.797226
9.149                0.873012291     -122.071642
9.15                 0.872618772     -122.346798
9.151                0.872224384     -122.622692
9.152                0.871829138     -122.899325
9.153                0.871433049     -123.176696
9.154                0.871036129     -123.454806
9.155                0.870638392     -123.733654
9.156                0.870239853     -124.013239
9.157                0.869840525     -124.293562
9.158                0.869440423     -124.574621
9.159                0.869039562     -124.856418
9.16                 0.868637956      -125.13895
9.161                 0.86823562     -125.422219
9.162                 0.86783257     -125.706222
9.163                0.867428821      -125.99096
9.164                0.867024388     -126.276433
9.165                0.866619289     -126.562638
9.166                0.866213538     -126.849577
9.167                0.865807153     -127.137248
9.168                0.865400149      -127.42565
9.169                0.864992544     -127.714783
9.17                 0.864584355     -128.004645
9.171                0.864175598     -128.295237
9.172                0.863766292     -128.586557
9.173                0.863356454     -128.878603
9.174                0.862946102     -129.171376
9.175                0.862535254     -129.464875
9.176                0.862123928     -129.759097
9.177                0.861712144     -130.054042
9.178                0.861299919     -130.349709
9.179                0.860887273     -130.646097
9.18                 0.860474225     -130.943205
9.181                0.860060794     -131.241031
9.182                   0.859647     -131.539573
9.183                0.859232863     -131.838831
9.184                0.858818403     -132.138804
9.185                 0.85840364     -132.439489
9.186                0.857988595     -132.740886
9.187                0.857573288     -133.042992
9.188                0.857157741     -133.345806
9.189                0.856741973     -133.649327
9.19                 0.856326008     -133.953553
9.191                0.855909866     -134.258482
9.192                0.855493568     -134.564113
9.193                0.855077138     -134.870443
9.194                0.854660596     -135.177471
9.195                0.854243966     -135.485195
9.196                 0.85382727     -135.793612
9.197                 0.85341053     -136.102722
9.198                0.852993769     -136.412522
9.199                0.852577011      -136.72301
9.2                  0.852160279     -137.034183
9.201                0.851743596      -137.34604
9.202                0.851326986     -137.658578
9.203                0.850910472     -137.971796
9.204                 0.85049408      -138.28569
9.205                0.850077832     -138.600258
9.206                0.849661754     -138.915499
9.207                0.849245869     -139.231409
9.208                0.848830203     -139.547986
9.209                0.848414781     -139.865227
9.21                 0.847999627      -140.18313
9.211                0.847584766     -140.501692
9.212                0.847170225      -140.82091
9.213                0.846756028     -141.140782
9.214                0.846342202     -141.461305
9.215                0.845928771     -141.782476
9.216                0.845515763     -142.104292
9.217                0.845103203     -142.426749
9.218                0.844691118     -142.749846
9.219                0.844279533     -143.073579
9.22                 0.843868475     -143.397944
9.221                0.843457972     -143.722939
9.222                 0.84304805      -144.04856
9.223                0.842638735     -144.374805
9.224                0.842230056     -144.701669
9.225                0.841822038     -145.029149
9.226                0.841414709     -145.357242
9.227                0.841008097     -145.685945
9.228                 0.84060223     -146.015253
9.229                0.840197134     -146.345164
9.23                 0.839792837     -146.675673
9.231                0.839389368     -147.006778
9.232                0.838986754     -147.338473
9.233                0.838585023     -147.670756
9.234                0.838184203     -148.003622
9.235                0.837784322     -148.337068
9.236                0.837385408     -148.671089
9.237                 0.83698749     -149.005682
9.238                0.836590597     -149.340842
9.239                0.836194755     -149.676566
9.24                 0.835799995     -150.012849
9.241                0.835406343     -150.349687
9.242                 0.83501383     -150.687076
9.243                0.834622483     -151.025011
9.244                0.834232331     -151.363488
9.245                0.833843402     -151.702503
9.246                0.833455726      -152.04205
9.247                0.833069331     -152.382127
9.248                0.832684246     -152.722727
9.249                0.832300499     -153.063846
9.25                  0.83191812      -153.40548
9.251                0.831537136     -153.747625
9.252                0.831157577     -154.090274
9.253                0.830779471     -154.433423
9.254                0.830402848     -154.777068
9.255                0.830027735     -155.121203
9.256                0.829654162     -155.465824
9.257                0.829282156     -155.810925
9.258                0.828911748     -156.156502
9.259                0.828542964     -156.502548
9.26                 0.828175835      -156.84906
9.261                0.827810387     -157.196031
9.262                0.827446651     -157.543457
9.263                0.827084653     -157.891332
9.264                0.826724422     -158.239651
9.265                0.826365987     -158.588408
9.266                0.826009375     -158.937598
9.267                0.825654615     -159.287216
9.268                0.825301735     -159.637255
9.269                0.824950762      -159.98771
9.27                 0.824601724     -160.338576
9.271                0.824254649     -160.689847
9.272                0.823909565     -161.041517
9.273                0.823566498      -161.39358
9.274                0.823225477     -161.746031
9.275                0.822886528     -162.098863
9.276                0.822549678     -162.452072
9.277                0.822214955     -162.805649
9.278                0.821882384     -163.159591
9.279                0.821551994      -163.51389
9.28                 0.821223809     -163.868541
9.281                0.820897857     -164.223537
9.282                0.820574164     -164.578873
9.283                0.820252756     -164.934542
9.284                0.819933657     -165.290538
9.285                0.819616895     -165.646854
9.286                0.819302495     -166.003485
9.287                0.818990481     -166.360424
9.288                0.818680878     -166.717664
9.289                0.818373713     -167.075199
9.29                 0.818069008     -167.433024
9.291                0.817766789      -167.79113
9.292                0.817467081     -168.149512
9.293                0.817169905     -168.508163
9.294                0.816875288     -168.867077
9.295                0.816583252     -169.226247
9.296                 0.81629382     -169.585666
9.297                0.816007015     -169.945328
9.298                0.815722861     -170.305225
9.299                 0.81544138     -170.665352
9.3                  0.815162593     -171.025701
9.301                0.814886524     -171.386266
9.302                0.814613194      -171.74704
9.303                0.814342624     -172.108015
9.304                0.814074835     -172.469186
9.305                0.813809849     -172.830544
9.306                0.813547687     -173.192084
9.307                0.813288368     -173.553799
9.308                0.813031912      -173.91568
9.309                 0.81277834     -174.277722
9.31                 0.812527671     -174.639918
9.311                0.812279924     -175.002259
9.312                0.812035118      -175.36474
9.313                0.811793271     -175.727353
9.314                0.811554402     -176.090092
9.315                0.811318529     -176.452948
9.316                0.811085669     -176.815915
9.317                 0.81085584     -177.178987
9.318                0.810629059     -177.542154
9.319                0.810405341     -177.905412
9.32                 0.810184704     -178.268751
9.321                0.809967163     -178.632166
9.322                0.809752734     -178.995649
9.323                0.809541433     -179.359193
9.324                0.809333273      -179.72279
9.325                0.809128271      179.913566
9.326                0.808926439      179.549883
9.327                0.808727792      179.186169
9.328                0.808532343      178.822429
9.329                0.808340106      178.458672
9.33                 0.808151092      178.094905
9.331                0.807965316      177.731135
9.332                0.807782788      177.367369
9.333                 0.80760352      177.003614
9.334                0.807427524      176.639878
9.335                 0.80725481      176.276169
9.336                0.807085389      175.912492
9.337                0.806919272      175.548856
9.338                0.806756468      175.185267
9.339                0.806596986      174.821733
9.34                 0.806440836      174.458262
9.341                0.806288026       174.09486
9.342                0.806138564      173.731534
9.343                0.805992459      173.368292
9.344                0.805849718      173.005141
9.345                0.805710347      172.642088
9.346                0.805574355       172.27914
9.347                0.805441747      171.916305
9.348                0.805312528      171.553589
9.349                0.805186706         171.191
9.35                 0.805064285      170.828545
9.351                0.804945269       170.46623
9.352                0.804829663      170.104064
9.353                0.804717472      169.742052
9.354                0.804608699      169.380203
9.355                0.804503347      169.018523
9.356                0.804401419      168.657019
9.357                0.804302918      168.295698
9.358                0.804207845      167.934567
9.359                0.804116203      167.573634
9.36                 0.804027993      167.212904
9.361                0.803943216      166.852385
9.362                0.803861873      166.492084
9.363                0.803783963      166.132007
9.364                0.803709486      165.772162
9.365                0.803638443      165.412555
9.366                0.803570832      165.053193
9.367                0.803506652      164.694082
9.368                0.803445901      164.335231
9.369                0.803388577      163.976644
9.37                 0.803334679      163.618329
9.371                0.803284202      163.260292
9.372                0.803237145       162.90254
9.373                0.803193503       162.54508
9.374                0.803153272      162.187918
9.375                 0.80311645       161.83106
9.376                 0.80308303      161.474513
9.377                0.803053009      161.118284
9.378                 0.80302638      160.762378
9.379                0.803003139      160.406803
9.38                 0.802983279      160.051564
9.381                0.802966794      159.696667
9.382                0.802953678       159.34212
9.383                0.802943923      158.987927
9.384                0.802937523      158.634096
9.385                0.802934469      158.280632
9.386                0.802934754      157.927541
9.387                 0.80293837       157.57483
9.388                0.802945307      157.222504
9.389                0.802955558       156.87057
9.39                 0.802969112      156.519032
9.391                 0.80298596      156.167898
9.392                0.803006093      155.817173
9.393                  0.8030295      155.466862
9.394                0.803056171      155.116972
9.395                0.803086095      154.767507
9.396                0.803119262      154.418474
9.397                0.803155659      154.069879
9.398                0.803195275      153.721726
9.399                0.803238099      153.374021
9.4                  0.803284117       153.02677
9.401                0.803333319      152.679978
9.402                 0.80338569       152.33365
9.403                0.803441219      151.987792
9.404                0.803499891      151.642409
9.405                0.803561694      151.297506
9.406                0.803626613      150.953088
9.407                0.803694635       150.60916
9.408                0.803765746      150.265728
9.409                 0.80383993      149.922795
9.41                 0.803917173      149.580368
9.411                0.803997461      149.238452
9.412                0.804080778      148.897049
9.413                0.804167108      148.556167
9.414                0.804256436      148.215809
9.415                0.804348747       147.87598
9.416                0.804444024      147.536685
9.417                 0.80454225      147.197928
9.418                 0.80464341      146.859713
9.419                0.804747487      146.522046
9.42                 0.804854464      146.184931
9.421                0.804964324      145.848371
9.422                0.805077049      145.512371
9.423                0.805192623      145.176936
9.424                0.805311027       144.84207
9.425                0.805432244      144.507776
9.426                0.805556256      144.174059
9.427                0.805683045      143.840923
9.428                0.805812593      143.508372
9.429                0.805944881      143.176409
9.43                  0.80607989      142.845039
9.431                0.806217603      142.514265
9.432                0.806357999      142.184092
9.433                0.806501061      141.854522
9.434                0.806646769      141.525559
9.435                0.806795104      141.197208
9.436                0.806946046      140.869471
9.437                0.807099576      140.542352
9.438                0.807255674      140.215854
9.439                0.807414321      139.889981
9.44                 0.807575497      139.564736
9.441                0.807739181      139.240123
9.442                0.807905355      138.916144
9.443                0.808073997      138.592802
9.444                0.808245087      138.270101
9.445                0.808418606      137.948044
9.446                0.808594532      137.626634
9.447                0.808772846      137.305873
9.448                0.808953526      136.985765
9.449                0.809136553      136.666312
9.45                 0.809321905      136.347518
9.451                0.809509562      136.029384
9.452                0.809699503      135.711913
9.453                0.809891706      135.395109
9.454                0.810086152      135.078973
9.455                0.810282819      134.763508
9.456                0.810481687      134.448716
9.457                0.810682733      134.134601
9.458                0.810885937      133.821164
9.459                0.811091279      133.508407
9.46                 0.811298736      133.196333
9.461                0.811508288      132.884944
9.462                0.811719913      132.574242
9.463                 0.81193359      132.264229
9.464                0.812149298      131.954908
9.465                0.812367016      131.646279
9.466                0.812586723      131.338346
9.467                0.812808396      131.031109
9.468                0.813032016      130.724572
9.469                 0.81325756      130.418735
9.47                 0.813485008        130.1136
9.471                0.813714338      129.809169
9.472                0.813945529      129.505444
9.473                0.814178559      129.202426
9.474                0.814413408      128.900117
9.475                0.814650055      128.598518
9.476                0.814888477      128.297631
9.477                0.815128655      127.997456
9.478                0.815370566      127.697997
9.479                 0.81561419      127.399252
9.48                 0.815859506      127.101225
9.481                0.816106493      126.803916
9.482                0.816355129      126.507327
9.483                0.816605394      126.211457
9.484                0.816857267       125.91631
9.485                0.817110727      125.621884
9.486                0.817365754      125.328183
9.487                0.817622326      125.035206
9.488                0.817880422      124.742954
9.489                0.818140023      124.451429
9.49                 0.818401108       124.16063
9.491                0.818663656       123.87056
9.492                0.818927646      123.581218
9.493                0.819193059      123.292605
9.494                0.819459873      123.004722
9.495                0.819728069       122.71757
9.496                0.819997627      122.431149
9.497                0.820268526      122.145459
9.498                0.820540746      121.860502
9.499                0.820814268      121.576277
9.5                  0.821089072      121.292785
9.501                0.821365137      121.010026
9.502                0.821642444      120.728001
9.503                0.821920973       120.44671
9.504                0.822200705      120.166153
9.505                0.822481621      119.886331
9.506                  0.8227637      119.607243
9.507                0.823046924       119.32889
9.508                0.823331274      119.051272
9.509                 0.82361673      118.774389
9.51                 0.823903273      118.498241
9.511                0.824190885      118.222828
9.512                0.824479547       117.94815
9.513                0.824769239      117.674207
9.514                0.825059944      117.400999
9.515                0.825351643      117.128526
9.516                0.825644317      116.856787
9.517                0.825937949      116.585783
9.518                0.826232519      116.315513
9.519                 0.82652801      116.045977
9.52                 0.826824404      115.777174
9.521                0.827121683      115.509105
9.522                 0.82741983      115.241769
9.523                0.827718825      114.975165
9.524                0.828018653      114.709294
9.525                0.828319296      114.444154
9.526                0.828620735      114.179746
9.527                0.828922955      113.916069
9.528                0.829225937      113.653122
9.529                0.829529666      113.390904
9.53                 0.829834123      113.129416
9.531                0.830139293      112.868657
9.532                0.830445159      112.608626
9.533                0.830751704      112.349322
9.534                0.831058911      112.090745
9.535                0.831366765      111.832893
9.536                0.831675249      111.575767
9.537                0.831984347      111.319366
9.538                0.832294044      111.063688
9.539                0.832604323      110.808733
9.54                 0.832915169        110.5545
9.541                0.833226566      110.300989
9.542                0.833538499      110.048198
9.543                0.833850952      109.796126
9.544                0.834163911      109.544773
9.545                 0.83447736      109.294138
9.546                0.834791284       109.04422
9.547                0.835105668      108.795017
9.548                0.835420498      108.546529
9.549                0.835735758      108.298754
9.55                 0.836051436      108.051693
9.551                0.836367515      107.805343
9.552                0.836683983      107.559703
9.553                0.837000824      107.314774
9.554                0.837318025      107.070552
9.555                0.837635572      106.827038
9.556                0.837953451      106.584229
9.557                0.838271649      106.342126
9.558                0.838590152      106.100726
9.559                0.838908946      105.860029
9.56                 0.839228019      105.620033
9.561                0.839547358      105.380738
9.562                0.839866948      105.142141
9.563                0.840186778      104.904241
9.564                0.840506835      104.667038
9.565                0.840827105       104.43053
9.566                0.841147578      104.194715
9.567                0.841468239      103.959593
9.568                0.841789076      103.725162
9.569                0.842110079       103.49142
9.57                 0.842431234      103.258367
9.571                0.842752529         103.026
9.572                0.843073953      102.794319
9.573                0.843395495      102.563322
9.574                0.843717141      102.333007
9.575                0.844038882      102.103374
9.576                0.844360706      101.874421
9.577                0.844682601      101.646145
9.578                0.845004556      101.418547
9.579                0.845326561      101.191624
9.58                 0.845648604      100.965375
9.581                0.845970675      100.739798
9.582                0.846292763      100.514892
9.583                0.846614858      100.290655
9.584                0.846936949      100.067086
9.585                0.847259026      99.8441826
9.586                0.847581078      99.6219443
9.587                0.847903096       99.400369
9.588                 0.84822507      99.1794553
9.589                0.848546989      98.9592014
9.59                 0.848868845      98.7396059
9.591                0.849190626      98.5206671
9.592                0.849512325      98.3023833
9.593                0.849833932      98.0847531
9.594                0.850155436      97.8677747
9.595                0.850476829      97.6514466
9.596                0.850798103       97.435767
9.597                0.851119247      97.2207343
9.598                0.851440253      97.0063469
9.599                0.851761113      96.7926032
9.6                  0.852081817      96.5795013
9.601                0.852402357      96.3670398