! TOUCHSTONE file generated by CST DESIGN STUDIO
! Date and time: Tue Feb  4 12:57:31 2025
! Project name: C:\Work\MatlabApps\UnitCellOptimizationMatlab\CST\unitcell.cst
! Tree item: Tasks\Sweep1\SPara1\S-Parameters
! Header version: 2024
! Port assignment regex: !\s*Touchstone port\s*([0-9]+)\s*=\s*(CST MWS port|CST DES external port|CST DES block port)\s*(.+)\s* \(\"(.*)\"\)(\s*mode\s*([0-9]+))?.*
! Touchstone port assignment:
! Touchstone port 1 = CST DES external port 1 ("")
# GHz S MA R 50
9                    0.974439871     -62.5496613
9.001                0.974392083     -62.6397186
9.002                0.974344061     -62.7299917
9.003                0.974295802     -62.8204812
9.004                0.974247307     -62.9111878
9.005                0.974198575     -63.0021123
9.006                0.974149605     -63.0932553
9.007                0.974100396     -63.1846176
9.008                0.974050948     -63.2761998
9.009                0.974001259     -63.3680027
9.01                  0.97395133     -63.4600269
9.011                0.973901159     -63.5522732
9.012                0.973850745     -63.6447423
9.013                0.973800088     -63.7374349
9.014                0.973749188     -63.8303517
9.015                0.973698042     -63.9234935
9.016                0.973646652     -64.0168609
9.017                0.973595015     -64.1104548
9.018                0.973543131     -64.2042757
9.019                0.973490999     -64.2983246
9.02                 0.973438619      -64.392602
9.021                 0.97338599     -64.4871088
9.022                0.973333111     -64.5818456
9.023                0.973279981     -64.6768133
9.024                0.973226599     -64.7720125
9.025                0.973172965      -64.867444
9.026                0.973119078     -64.9631086
9.027                0.973064938      -65.059007
9.028                0.973010543     -65.1551399
9.029                0.972955892     -65.2515082
9.03                 0.972900985     -65.3481125
9.031                0.972845822     -65.4449537
9.032                0.972790401     -65.5420326
9.033                0.972734721     -65.6393497
9.034                0.972678782     -65.7369061
9.035                0.972622583     -65.8347023
9.036                0.972566123     -65.9327393
9.037                0.972509402     -66.0310177
9.038                0.972452418     -66.1295384
9.039                0.972395171     -66.2283021
9.04                  0.97233766     -66.3273096
9.041                0.972279885     -66.4265618
9.042                0.972221844     -66.5260593
9.043                0.972163536      -66.625803
9.044                0.972104962     -66.7257938
9.045                 0.97204612     -66.8260323
9.046                0.971987008     -66.9265194
9.047                0.971927628     -67.0272559
9.048                0.971867977     -67.1282426
9.049                0.971808055     -67.2294804
9.05                 0.971747861     -67.3309699
9.051                0.971687395     -67.4327121
9.052                0.971626655     -67.5347077
9.053                 0.97156564     -67.6369576
9.054                0.971504351     -67.7394627
9.055                0.971442785     -67.8422236
9.056                0.971380943     -67.9452413
9.057                0.971318824     -68.0485166
9.058                0.971256426     -68.1520503
9.059                0.971193749     -68.2558432
9.06                 0.971130792     -68.3598962
9.061                0.971067554     -68.4642102
9.062                0.971004035     -68.5687859
9.063                0.970940233     -68.6736243
9.064                0.970876148     -68.7787261
9.065                0.970811779     -68.8840923
9.066                0.970747125     -68.9897236
9.067                0.970682186      -69.095621
9.068                 0.97061696     -69.2017852
9.069                0.970551447     -69.3082173
9.07                 0.970485646     -69.4149179
9.071                0.970419556     -69.5218881
9.072                0.970353176     -69.6291286
9.073                0.970286505     -69.7366403
9.074                0.970219544     -69.8444242
9.075                 0.97015229     -69.9524811
9.076                0.970084743     -70.0608118
9.077                0.970016902     -70.1694173
9.078                0.969948767     -70.2782985
9.079                0.969880336     -70.3874561
9.08                 0.969811609     -70.4968913
9.081                0.969742584     -70.6066047
9.082                0.969673262     -70.7165974
9.083                0.969603641     -70.8268702
9.084                0.969533721      -70.937424
9.085                  0.9694635     -71.0482598
9.086                0.969392978     -71.1593784
9.087                0.969322154     -71.2707808
9.088                0.969251027     -71.3824678
9.089                0.969179597     -71.4944405
9.09                 0.969107861     -71.6066996
9.091                0.969035821     -71.7192462
9.092                0.968963474     -71.8320812
9.093                0.968890821     -71.9452054
9.094                 0.96881786     -72.0586199
9.095                 0.96874459     -72.1723255
9.096                0.968671011     -72.2863232
9.097                0.968597121      -72.400614
9.098                0.968522921     -72.5151987
9.099                0.968448408     -72.6300783
9.1                  0.968373583     -72.7452538
9.101                0.968298444     -72.8607261
9.102                0.968222991     -72.9764962
9.103                0.968147223      -73.092565
9.104                0.968071139     -73.2089335
9.105                0.967994739     -73.3256026
9.106                 0.96791802     -73.4425733
9.107                0.967840984     -73.5598466
9.108                0.967763628     -73.6774235
9.109                0.967685952     -73.7953049
9.11                 0.967607955     -73.9134917
9.111                0.967529637      -74.031985
9.112                0.967450996     -74.1507858
9.113                0.967372032      -74.269895
9.114                0.967292744     -74.3893137
9.115                0.967213132     -74.5090427
9.116                0.967133193     -74.6290831
9.117                0.967052929     -74.7494359
9.118                0.966972337     -74.8701021
9.119                0.966891417     -74.9910827
9.12                 0.966810168     -75.1123787
9.121                0.966728589      -75.233991
9.122                0.966646681     -75.3559208
9.123                0.966564441      -75.478169
9.124                0.966481869     -75.6007365
9.125                0.966398964     -75.7236245
9.126                0.966315726      -75.846834
9.127                0.966232154     -75.9703659
9.128                0.966148247     -76.0942214
9.129                0.966064003     -76.2184013
9.13                 0.965979423     -76.3429068
9.131                0.965894506     -76.4677389
9.132                0.965809251     -76.5928985
9.133                0.965723657     -76.7183869
9.134                0.965637723     -76.8442049
9.135                0.965551449     -76.9703536
9.136                0.965464833     -77.0968341
9.137                0.965377876     -77.2236474
9.138                0.965290576     -77.3507945
9.139                0.965202932     -77.4782766
9.14                 0.965114945     -77.6060946
9.141                0.965026612     -77.7342497
9.142                0.964937934     -77.8627428
9.143                 0.96484891     -77.9915751
9.144                0.964759538     -78.1207476
9.145                0.964669819     -78.2502613
9.146                0.964579751     -78.3801174
9.147                0.964489335     -78.5103168
9.148                0.964398568     -78.6408608
9.149                 0.96430745     -78.7717503
9.15                 0.964215981     -78.9029864
9.151                 0.96412416     -79.0345702
9.152                0.964031987     -79.1665029
9.153                 0.96393946     -79.2987854
9.154                0.963846579     -79.4314188
9.155                0.963753343     -79.5644043
9.156                0.963659752      -79.697743
9.157                0.963565804     -79.8314359
9.158                  0.9634715     -79.9654841
9.159                0.963376838     -80.0998887
9.16                 0.963281818     -80.2346509
9.161                 0.96318644     -80.3697717
9.162                0.963090702     -80.5052523
9.163                0.962994604     -80.6410937
9.164                0.962898146      -80.777297
9.165                0.962801326     -80.9138634
9.166                0.962704144      -81.050794
9.167                  0.9626066     -81.1880899
9.168                0.962508693     -81.3257522
9.169                0.962410422      -81.463782
9.17                 0.962311787     -81.6021805
9.171                0.962212786     -81.7409487
9.172                0.962113421     -81.8800878
9.173                0.962013689      -82.019599
9.174                0.961913591     -82.1594833
9.175                0.961813125     -82.2997419
9.176                0.961712292     -82.4403759
9.177                0.961611091     -82.5813865
9.178                 0.96150952     -82.7227748
9.179                0.961407581     -82.8645419
9.18                 0.961305272      -83.006689
9.181                0.961202592     -83.1492171
9.182                0.961099541     -83.2921276
9.183                0.960996119     -83.4354214
9.184                0.960892325     -83.5790998
9.185                0.960788159     -83.7231639
9.186                 0.96068362     -83.8676148
9.187                0.960578708     -84.0124537
9.188                0.960473422     -84.1576818
9.189                0.960367762     -84.3033002
9.19                 0.960261727     -84.4493101
9.191                0.960155318     -84.5957126
9.192                0.960048533     -84.7425088
9.193                0.959941372        -84.8897
9.194                0.959833834     -85.0372874
9.195                0.959725921     -85.1852719
9.196                 0.95961763      -85.333655
9.197                0.959508962     -85.4824376
9.198                0.959399916      -85.631621
9.199                0.959290492     -85.7812063
9.2                  0.959180689     -85.9311947
9.201                0.959070508     -86.0815874
9.202                0.958959948     -86.2323856
9.203                0.958849009     -86.3835904
9.204                0.958737689      -86.535203
9.205                0.958625991     -86.6872245
9.206                0.958513911     -86.8396562
9.207                0.958401452     -86.9924993
9.208                0.958288612     -87.1457548
9.209                0.958175391      -87.299424
9.21                 0.958061788     -87.4535081
9.211                0.957947805     -87.6080082
9.212                 0.95783344     -87.7629256
9.213                0.957718693     -87.9182613
9.214                0.957603565     -88.0740166
9.215                0.957488054     -88.2301927
9.216                0.957372162     -88.3867908
9.217                0.957255887      -88.543812
9.218                 0.95713923     -88.7012575
9.219                 0.95702219     -88.8591285
9.22                 0.956904768     -89.0174262
9.221                0.956786963     -89.1761518
9.222                0.956668776     -89.3353064
9.223                0.956550206     -89.4948913
9.224                0.956431254     -89.6549076
9.225                0.956311918     -89.8153565
9.226                  0.9561922     -89.9762392
9.227                  0.9560721     -90.1375569
9.228                0.955951617     -90.2993108
9.229                0.955830751      -90.461502
9.23                 0.955709503     -90.6241318
9.231                0.955587872     -90.7872013
9.232                 0.95546586     -90.9507117
9.233                0.955343465     -91.1146642
9.234                0.955220688     -91.2790599
9.235                0.955097529     -91.4439002
9.236                0.954973989     -91.6091861
9.237                0.954850068     -91.7749188
9.238                0.954725765     -91.9410995
9.239                0.954601081     -92.1077294
9.24                 0.954476017     -92.2748096
9.241                0.954350572     -92.4423414
9.242                0.954224747      -92.610326
9.243                0.954098542     -92.7787644
9.244                0.953971958     -92.9476579
9.245                0.953844995     -93.1170076
9.246                0.953717653     -93.2868148
9.247                0.953589932     -93.4570806
9.248                0.953461834     -93.6278061
9.249                0.953333358     -93.7989926
9.25                 0.953204505     -93.9706411
9.251                0.953075276      -94.142753
9.252                0.952945671     -94.3153292
9.253                 0.95281569     -94.4883711
9.254                0.952685334     -94.6618797
9.255                0.952554604     -94.8358563
9.256                  0.9524235     -95.0103019
9.257                0.952292023     -95.1852177
9.258                0.952160173     -95.3606049
9.259                0.952027951     -95.5364646
9.26                 0.951895359     -95.7127981
9.261                0.951762395     -95.8896063
9.262                0.951629062     -96.0668905
9.263                 0.95149536     -96.2446518
9.264                 0.95136129     -96.4228914
9.265                0.951226853     -96.6016104
9.266                0.951092049     -96.7808098
9.267                0.950956879     -96.9604909
9.268                0.950821345     -97.1406548
9.269                0.950685447     -97.3213026
9.27                 0.950549185     -97.5024354
9.271                0.950412562     -97.6840544
9.272                0.950275578     -97.8661606
9.273                0.950138234     -98.0487551
9.274                0.950000531     -98.2318392
9.275                 0.94986247     -98.4154138
9.276                0.949724053       -98.59948
9.277                 0.94958528     -98.7840391
9.278                0.949446152      -98.969092
9.279                0.949306672     -99.1546399
9.28                 0.949166839     -99.3406838
9.281                0.949026656     -99.5272248
9.282                0.948886123      -99.714264
9.283                0.948745242     -99.9018024
9.284                0.948604014     -100.089841
9.285                0.948462441     -100.278381
9.286                0.948320524     -100.467424
9.287                0.948178264      -100.65697
9.288                0.948035664     -100.847021
9.289                0.947892723     -101.037577
9.29                 0.947749445      -101.22864
9.291                 0.94760583     -101.420211
9.292                 0.94746188      -101.61229
9.293                0.947317597     -101.804879
9.294                0.947172982     -101.997978
9.295                0.947028038      -102.19159
9.296                0.946882765     -102.385714
9.297                0.946737166     -102.580352
9.298                0.946591242     -102.775504
9.299                0.946444996     -102.971173
9.3                  0.946298428     -103.167358
9.301                0.946151542      -103.36406
9.302                0.946004338     -103.561282
9.303                 0.94585682     -103.759023
9.304                0.945708989     -103.957284
9.305                0.945560846     -104.156067
9.306                0.945412395     -104.355372
9.307                0.945263637     -104.555201
9.308                0.945114574     -104.755554
9.309                0.944965209     -104.956432
9.31                 0.944815543     -105.157836
9.311                 0.94466558     -105.359768
9.312                0.944515322     -105.562227
9.313                 0.94436477     -105.765215
9.314                0.944213927     -105.968732
9.315                0.944062796      -106.17278
9.316                0.943911379      -106.37736
9.317                0.943759678     -106.582472
9.318                0.943607697     -106.788117
9.319                0.943455438     -106.994295
9.32                 0.943302902     -107.201009
9.321                0.943150094     -107.408258
9.322                0.942997016     -107.616043
9.323                0.942843671     -107.824366
9.324                 0.94269006     -108.033226
9.325                0.942536188     -108.242626
9.326                0.942382057     -108.452564
9.327                 0.94222767     -108.663043
9.328                 0.94207303     -108.874063
9.329                0.941918141     -109.085625
9.33                 0.941763004     -109.297729
9.331                0.941607623     -109.510376
9.332                0.941452002     -109.723567
9.333                0.941296143     -109.937303
9.334                 0.94114005     -110.151584
9.335                0.940983726     -110.366411
9.336                0.940827175     -110.581785
9.337                0.940670399     -110.797705
9.338                0.940513402     -111.014174
9.339                0.940356188     -111.231191
9.34                  0.94019876     -111.448757
9.341                0.940041122     -111.666873
9.342                0.939883277     -111.885539
9.343                0.939725229     -112.104756
9.344                0.939566982     -112.324525
9.345                0.939408539     -112.544845
9.346                0.939249904     -112.765718
9.347                0.939091081     -112.987144
9.348                0.938932075     -113.209124
9.349                0.938772888     -113.431657
9.35                 0.938613524     -113.654746
9.351                0.938453989     -113.878389
9.352                0.938294285     -114.102587
9.353                0.938134418     -114.327342
9.354                0.937974391     -114.552652
9.355                0.937814208      -114.77852
9.356                0.937653874     -115.004944
9.357                0.937493393     -115.231927
9.358                0.937332769     -115.459467
9.359                0.937172008     -115.687565
9.36                 0.937011112     -115.916221
9.361                0.936850087     -116.145437
9.362                0.936688938     -116.375212
9.363                0.936527669     -116.605546
9.364                0.936366284      -116.83644
9.365                0.936204789     -117.067894
9.366                0.936043187     -117.299908
9.367                0.935881485     -117.532483
9.368                0.935719687     -117.765618
9.369                0.935557797     -117.999314
9.37                 0.935395821     -118.233571
9.371                0.935233764     -118.468389
9.372                0.935071631     -118.703769
9.373                0.934909427      -118.93971
9.374                0.934747157     -119.176212
9.375                0.934584826     -119.413276
9.376                0.934422439     -119.650902
9.377                0.934260003     -119.889089
9.378                0.934097522     -120.127838
9.379                0.933935002     -120.367149
9.38                 0.933772448     -120.607022
9.381                0.933609866     -120.847456
9.382                0.933447261     -121.088452
9.383                0.933284639     -121.330009
9.384                0.933122005     -121.572128
9.385                0.932959366     -121.814808
9.386                0.932796727     -122.058049
9.387                0.932634095     -122.301852
9.388                0.932471474     -122.546215
9.389                0.932308871     -122.791139
9.39                 0.932146291     -123.036624
9.391                0.931983742     -123.282668
9.392                0.931821228     -123.529273
9.393                0.931658756     -123.776438
9.394                0.931496333     -124.024161
9.395                0.931333964     -124.272444
9.396                0.931171656     -124.521286
9.397                0.931009415     -124.770686
9.398                0.930847247     -125.020644
9.399                0.930685159     -125.271159
9.4                  0.930523158     -125.522232
9.401                0.930361249     -125.773861
9.402                 0.93019944     -126.026047
9.403                0.930037737     -126.278788
9.404                0.929876147     -126.532085
9.405                0.929714676     -126.785936
9.406                0.929553331     -127.040341
9.407                 0.92939212     -127.295299
9.408                0.929231048      -127.55081
9.409                0.929070123     -127.806874
9.41                 0.928909352     -128.063489
9.411                0.928748741     -128.320655
9.412                0.928588299      -128.57837
9.413                0.928428031     -128.836636
9.414                0.928267945     -129.095449
9.415                0.928108048     -129.354811
9.416                0.927948348     -129.614719
9.417                0.927788852     -129.875173
9.418                0.927629566     -130.136173
9.419                0.927470499     -130.397717
9.42                 0.927311657     -130.659804
9.421                0.927153049     -130.922434
9.422                0.926994681     -131.185605
9.423                0.926836561     -131.449317
9.424                0.926678697     -131.713568
9.425                0.926521096     -131.978357
9.426                0.926363766     -132.243684
9.427                0.926206714     -132.509547
9.428                0.926049949     -132.775944
9.429                0.925893478     -133.042876
9.43                 0.925737309      -133.31034
9.431                0.925581449     -133.578336
9.432                0.925425906     -133.846862
9.433                0.925270689     -134.115917
9.434                0.925115806     -134.385499
9.435                0.924961263     -134.655607
9.436                 0.92480707     -134.926241
9.437                0.924653234     -135.197398
9.438                0.924499763     -135.469077
9.439                0.924346666     -135.741276
9.44                  0.92419395     -136.013995
9.441                0.924041624     -136.287231
9.442                0.923889695     -136.560984
9.443                0.923738173     -136.835251
9.444                0.923587065     -137.110031
9.445                0.923436379     -137.385322
9.446                0.923286125     -137.661122
9.447                0.923136309     -137.937431
9.448                0.922986941     -138.214246
9.449                0.922838028     -138.491566
9.45                  0.92268958     -138.769388
9.451                0.922541604     -139.047711
9.452                0.922394109     -139.326533
9.453                0.922247104     -139.605853
9.454                0.922100596     -139.885667
9.455                0.921954595     -140.165976
9.456                0.921809109     -140.446775
9.457                0.921664146     -140.728064
9.458                0.921519715     -141.009841
9.459                0.921375824     -141.292103
9.46                 0.921232482     -141.574848
9.461                0.921089698     -141.858075
9.462                 0.92094748      -142.14178
9.463                0.920805837     -142.425963
9.464                0.920664776      -142.71062
9.465                0.920524308      -142.99575
9.466                 0.92038444      -143.28135
9.467                0.920245182     -143.567418
9.468                0.920106541     -143.853952
9.469                0.919968526     -144.140949
9.47                 0.919831147     -144.428406
9.471                0.919694411     -144.716323
9.472                0.919558327     -145.004695
9.473                0.919422905     -145.293521
9.474                0.919288151     -145.582798
9.475                0.919154076     -145.872523
9.476                0.919020688     -146.162695
9.477                0.918887994     -146.453309
9.478                0.918756005     -146.744365
9.479                0.918624729     -147.035858
9.48                 0.918494173     -147.327787
9.481                0.918364348     -147.620149
9.482                 0.91823526      -147.91294
9.483                 0.91810692     -148.206159
9.484                0.917979335     -148.499802
9.485                0.917852514     -148.793866
9.486                0.917726465     -149.088349
9.487                0.917601197     -149.383248
9.488                0.917476719      -149.67856
9.489                0.917353039     -149.974281
9.49                 0.917230165     -150.270409
9.491                0.917108105     -150.566941
9.492                0.916986869     -150.863873
9.493                0.916866464     -151.161204
9.494                0.916746899     -151.458929
9.495                0.916628183     -151.757045
9.496                0.916510322     -152.055549
9.497                0.916393327     -152.354439
9.498                0.916277204      -152.65371
9.499                0.916161963      -152.95336
9.5                   0.91604761     -153.253385
9.501                0.915934155     -153.553781
9.502                0.915821606     -153.854547
9.503                 0.91570997     -154.155678
9.504                0.915599255      -154.45717
9.505                 0.91548947     -154.759021
9.506                0.915380622     -155.061227
9.507                 0.91527272     -155.363784
9.508                 0.91516577     -155.666689
9.509                0.915059782     -155.969939
9.51                 0.914954762     -156.273529
9.511                0.914850718     -156.577456
9.512                0.914747659     -156.881717
9.513                 0.91464559     -157.186308
9.514                0.914544521     -157.491225
9.515                0.914444459     -157.796465
9.516                 0.91434541     -158.102024
9.517                0.914247383     -158.407897
9.518                0.914150385     -158.714082
9.519                0.914054422     -159.020575
9.52                 0.913959503     -159.327371
9.521                0.913865634     -159.634466
9.522                0.913772822     -159.941858
9.523                0.913681074     -160.249542
9.524                0.913590398     -160.557513
9.525                  0.9135008     -160.865769
9.526                0.913412286     -161.174305
9.527                0.913324865     -161.483117
9.528                0.913238542     -161.792201
9.529                0.913153323     -162.101553
9.53                 0.913069216     -162.411169
9.531                0.912986227     -162.721045
9.532                0.912904363     -163.031176
9.533                0.912823628      -163.34156
9.534                0.912744031      -163.65219
9.535                0.912665576     -163.963064
9.536                0.912588271     -164.274177
9.537                 0.91251212     -164.585525
9.538                 0.91243713     -164.897103
9.539                0.912363307     -165.208908
9.54                 0.912290656     -165.520935
9.541                0.912219183      -165.83318
9.542                0.912148894     -166.145637
9.543                0.912079793     -166.458304
9.544                0.912011887     -166.771176
9.545                0.911945181     -167.084248
9.546                0.911879679     -167.397516
9.547                0.911815388     -167.710976
9.548                0.911752311     -168.024622
9.549                0.911690454     -168.338452
9.55                 0.911629822     -168.652459
9.551                0.911570419      -168.96664
9.552                 0.91151225     -169.280991
9.553                 0.91145532     -169.595506
9.554                0.911399633     -169.910181
9.555                0.911345193     -170.225012
9.556                0.911292004     -170.539994
9.557                0.911240072     -170.855123
9.558                0.911189398     -171.170393
9.559                0.911139989     -171.485801
9.56                 0.911091847     -171.801342
9.561                0.911044976     -172.117011
9.562                0.910999379     -172.432803
9.563                0.910955061     -172.748714
9.564                0.910912025      -173.06474
9.565                0.910870273     -173.380874
9.566                 0.91082981     -173.697114
9.567                0.910790638     -174.013454
9.568                 0.91075276      -174.32989
9.569                0.910716178     -174.646416
9.57                 0.910680897     -174.963029
9.571                0.910646918     -175.279723
9.572                0.910614244     -175.596493
9.573                0.910582877     -175.913336
9.574                0.910552819     -176.230246
9.575                0.910524074     -176.547218
9.576                0.910496642     -176.864248
9.577                0.910470526     -177.181331
9.578                0.910445728     -177.498462
9.579                0.910422249     -177.815637
9.58                 0.910400091      -178.13285
9.581                0.910379255     -178.450098
9.582                0.910359744     -178.767374
9.583                0.910341557     -179.084675
9.584                0.910324697     -179.401995
9.585                0.910309164      -179.71933
9.586                0.910294959      179.963324
9.587                0.910282084      179.645974
9.588                0.910270538      179.328623
9.589                0.910260322      179.011276
9.59                 0.910251437      178.693938
9.591                0.910243884      178.376615
9.592                0.910237661       178.05931
9.593                 0.91023277      177.742028
9.594                0.910229211      177.424774
9.595                0.910226983      177.107554
9.596                0.910226085      176.790371
9.597                0.910226519      176.473231
9.598                0.910228283      176.156138
9.599                0.910231376      175.839097
9.6                  0.910235799      175.522113
9.601                0.910241549       175.20519