! TOUCHSTONE file generated by CST DESIGN STUDIO
! Date and time: Tue Feb  4 12:57:28 2025
! Project name: C:\Work\MatlabApps\UnitCellOptimizationMatlab\CST\unitcell.cst
! Tree item: Tasks\Sweep1\SPara1\S-Parameters
! Header version: 2024
! Port assignment regex: !\s*Touchstone port\s*([0-9]+)\s*=\s*(CST MWS port|CST DES external port|CST DES block port)\s*(.+)\s* \(\"(.*)\"\)(\s*mode\s*([0-9]+))?.*
! Touchstone port assignment:
! Touchstone port 1 = CST DES external port 1 ("")
# GHz S MA R 50
9                    0.972054486     -68.1860653
9.001                  0.9720005     -68.2885905
9.002                0.971946246     -68.3913722
9.003                0.971891723     -68.4944114
9.004                0.971836931     -68.5977088
9.005                0.971781867     -68.7012653
9.006                0.971726532     -68.8050817
9.007                0.971670925     -68.9091589
9.008                0.971615045     -69.0134976
9.009                0.971558891     -69.1180987
9.01                 0.971502462      -69.222963
9.011                0.971445757     -69.3280915
9.012                0.971388776     -69.4334849
9.013                0.971331518      -69.539144
9.014                0.971273982     -69.6450699
9.015                0.971216167     -69.7512632
9.016                0.971158072     -69.8577248
9.017                0.971099696     -69.9644557
9.018                0.971041039     -70.0714566
9.019                  0.9709821     -70.1787285
9.02                 0.970922877     -70.2862722
9.021                0.970863371     -70.3940885
9.022                0.970803579     -70.5021784
9.023                0.970743502     -70.6105427
9.024                0.970683139     -70.7191823
9.025                0.970622488     -70.8280981
9.026                0.970561549     -70.9372909
9.027                 0.97050032     -71.0467617
9.028                0.970438802     -71.1565114
9.029                0.970376993     -71.2665407
9.03                 0.970314893     -71.3768507
9.031                  0.9702525     -71.4874422
9.032                0.970189814     -71.5983161
9.033                0.970126833     -71.7094733
9.034                0.970063558     -71.8209147
9.035                0.969999986     -71.9326413
9.036                0.969936118     -72.0446539
9.037                0.969871953     -72.1569535
9.038                0.969807489     -72.2695409
9.039                0.969742726     -72.3824171
9.04                 0.969677662      -72.495583
9.041                0.969612298     -72.6090396
9.042                0.969546632     -72.7227877
9.043                0.969480663     -72.8368282
9.044                 0.96941439     -72.9511622
9.045                0.969347813     -73.0657906
9.046                0.969280931     -73.1807142
9.047                0.969213743      -73.295934
9.048                0.969146248      -73.411451
9.049                0.969078445     -73.5272661
9.05                 0.969010334     -73.6433803
9.051                0.968941913     -73.7597945
9.052                0.968873181     -73.8765096
9.053                0.968804139     -73.9935266
9.054                0.968734784     -74.1108466
9.055                0.968665116     -74.2284703
9.056                0.968595135     -74.3463988
9.057                0.968524839     -74.4646331
9.058                0.968454228     -74.5831741
9.059                  0.9683833     -74.7020228
9.06                 0.968312055     -74.8211802
9.061                0.968240493     -74.9406472
9.062                0.968168611     -75.0604249
9.063                 0.96809641     -75.1805141
9.064                0.968023888      -75.300916
9.065                0.967951045     -75.4216314
9.066                 0.96787788     -75.5426613
9.067                0.967804392     -75.6640069
9.068                 0.96773058      -75.785669
9.069                0.967656443     -75.9076486
9.07                  0.96758198     -76.0299467
9.071                0.967507192     -76.1525644
9.072                0.967432076     -76.2755027
9.073                0.967356632     -76.3987625
9.074                0.967280859     -76.5223449
9.075                0.967204757     -76.6462509
9.076                0.967128324     -76.7704814
9.077                 0.96705156     -76.8950376
9.078                0.966974463     -77.0199203
9.079                0.966897034     -77.1451308
9.08                 0.966819271     -77.2706699
9.081                0.966741173     -77.3965387
9.082                 0.96666274     -77.5227382
9.083                0.966583971     -77.6492695
9.084                0.966504865     -77.7761335
9.085                0.966425421     -77.9033314
9.086                0.966345639     -78.0308642
9.087                0.966265517     -78.1587329
9.088                0.966185054     -78.2869385
9.089                0.966104251     -78.4154821
9.09                 0.966023106     -78.5443648
9.091                0.965941619     -78.6735876
9.092                0.965859788     -78.8031515
9.093                0.965777613     -78.9330576
9.094                0.965695093      -79.063307
9.095                0.965612228     -79.1939007
9.096                0.965529016     -79.3248398
9.097                0.965445456     -79.4561253
9.098                0.965361549     -79.5877583
9.099                0.965277293       -79.71974
9.1                  0.965192688     -79.8520713
9.101                0.965107733     -79.9847533
9.102                0.965022426     -80.1177871
9.103                0.964936768     -80.2511738
9.104                0.964850757     -80.3849144
9.105                0.964764393     -80.5190101
9.106                0.964677675     -80.6534619
9.107                0.964590603     -80.7882709
9.108                0.964503175     -80.9234382
9.109                0.964415391     -81.0589649
9.11                  0.96432725     -81.1948521
9.111                0.964238752     -81.3311009
9.112                0.964149896     -81.4677123
9.113                0.964060681     -81.6046875
9.114                0.963971106     -81.7420276
9.115                0.963881171     -81.8797337
9.116                0.963790875     -82.0178068
9.117                0.963700217     -82.1562481
9.118                0.963609197     -82.2950587
9.119                0.963517815     -82.4342397
9.12                 0.963426068     -82.5737922
9.121                0.963333958     -82.7137173
9.122                0.963241482     -82.8540162
9.123                0.963148641     -82.9946899
9.124                0.963055434     -83.1357396
9.125                 0.96296186     -83.2771664
9.126                0.962867919     -83.4189715
9.127                0.962773609     -83.5611558
9.128                0.962678931     -83.7037206
9.129                0.962583884     -83.8466671
9.13                 0.962488468     -83.9899962
9.131                 0.96239268     -84.1337092
9.132                0.962296522     -84.2778072
9.133                0.962199993     -84.4222913
9.134                0.962103091     -84.5671626
9.135                0.962005817     -84.7124223
9.136                0.961908169     -84.8580716
9.137                0.961810148     -85.0041115
9.138                0.961711753     -85.1505432
9.139                0.961612983     -85.2973679
9.14                 0.961513838     -85.4445867
9.141                0.961414317     -85.5922007
9.142                 0.96131442      -85.740211
9.143                0.961214147     -85.8886189
9.144                0.961113496     -86.0374255
9.145                0.961012468     -86.1866318
9.146                0.960911061     -86.3362392
9.147                0.960809276     -86.4862487
9.148                0.960707113     -86.6366614
9.149                0.960604569     -86.7874785
9.15                 0.960501647     -86.9387013
9.151                0.960398344     -87.0903307
9.152                 0.96029466     -87.2423681
9.153                0.960190596     -87.3948145
9.154                 0.96008615     -87.5476711
9.155                0.959981323      -87.700939
9.156                0.959876113     -87.8546194
9.157                0.959770522     -88.0087136
9.158                0.959664548     -88.1632225
9.159                 0.95955819     -88.3181475
9.16                  0.95945145     -88.4734896
9.161                0.959344326       -88.62925
9.162                0.959236819     -88.7854299
9.163                0.959128927     -88.9420304
9.164                0.959020651     -89.0990527
9.165                0.958911991      -89.256498
9.166                0.958802945     -89.4143674
9.167                0.958693515     -89.5726621
9.168                  0.9585837     -89.7313833
9.169                0.958473499      -89.890532
9.17                 0.958362913     -90.0501095
9.171                0.958251942      -90.210117
9.172                0.958140584     -90.3705555
9.173                0.958028841     -90.5314263
9.174                0.957916712     -90.6927305
9.175                0.957804197     -90.8544694
9.176                0.957691295     -91.0166439
9.177                0.957578007     -91.1792554
9.178                0.957464333     -91.3423049
9.179                0.957350273     -91.5057937
9.18                 0.957235827     -91.6697228
9.181                0.957120994     -91.8340935
9.182                0.957005775     -91.9989069
9.183                 0.95689017     -92.1641642
9.184                0.956774178     -92.3298665
9.185                0.956657801      -92.496015
9.186                0.956541037     -92.6626108
9.187                0.956423888      -92.829655
9.188                0.956306352      -92.997149
9.189                0.956188431     -93.1650937
9.19                 0.956070125     -93.3334904
9.191                0.955951433     -93.5023401
9.192                0.955832356     -93.6716441
9.193                0.955712895     -93.8414035
9.194                0.955593048     -94.0116194
9.195                0.955472817      -94.182293
9.196                0.955352203     -94.3534254
9.197                0.955231204     -94.5250178
9.198                0.955109822     -94.6970713
9.199                0.954988056      -94.869587
9.2                  0.954865908     -95.0425661
9.201                0.954743377     -95.2160097
9.202                0.954620465      -95.389919
9.203                0.954497171      -95.564295
9.204                0.954373495     -95.7391389
9.205                0.954249439     -95.9144518
9.206                0.954125003     -96.0902349
9.207                0.954000186     -96.2664893
9.208                0.953874991      -96.443216
9.209                0.953749417     -96.6204162
9.21                 0.953623465      -96.798091
9.211                0.953497136     -96.9762416
9.212                 0.95337043      -97.154869
9.213                0.953243347     -97.3339743
9.214                0.953115889     -97.5135586
9.215                0.952988057     -97.6936231
9.216                 0.95285985     -97.8741687
9.217                 0.95273127     -98.0551967
9.218                0.952602317     -98.2367081
9.219                0.952472993      -98.418704
9.22                 0.952343298     -98.6011855
9.221                0.952213232     -98.7841536
9.222                0.952082798     -98.9676094
9.223                0.951951995      -99.151554
9.224                0.951820825     -99.3359884
9.225                0.951689288     -99.5209138
9.226                0.951557386     -99.7063311
9.227                 0.95142512     -99.8922415
9.228                 0.95129249     -100.078646
9.229                0.951159499     -100.265545
9.23                 0.951026145     -100.452941
9.231                0.950892432     -100.640834
9.232                 0.95075836     -100.829225
9.233                 0.95062393     -101.018116
9.234                0.950489144     -101.207506
9.235                0.950354003     -101.397398
9.236                0.950218507     -101.587792
9.237                0.950082659      -101.77869
9.238                 0.94994646     -101.970092
9.239                0.949809911     -102.161999
9.24                 0.949673013     -102.354412
9.241                0.949535768     -102.547333
9.242                0.949398178     -102.740761
9.243                0.949260243     -102.934699
9.244                0.949121966     -103.129148
9.245                0.948983347     -103.324107
9.246                 0.94884439     -103.519579
9.247                0.948705094     -103.715563
9.248                0.948565463     -103.912061
9.249                0.948425497     -104.109075
9.25                 0.948285198     -104.306604
9.251                0.948144569      -104.50465
9.252                 0.94800361     -104.703213
9.253                0.947862324     -104.902295
9.254                0.947720713     -105.101897
9.255                0.947578778     -105.302019
9.256                0.947436521     -105.502662
9.257                0.947293945     -105.703827
9.258                0.947151052     -105.905515
9.259                0.947007843     -106.107727
9.26                 0.946864321     -106.310464
9.261                0.946720487     -106.513726
9.262                0.946576345     -106.717514
9.263                0.946431895      -106.92183
9.264                0.946287141     -107.126674
9.265                0.946142085     -107.332046
9.266                0.945996728     -107.537948
9.267                0.945851074     -107.744381
9.268                0.945705125     -107.951344
9.269                0.945558883      -108.15884
9.27                  0.94541235     -108.366868
9.271                 0.94526553     -108.575429
9.272                0.945118425     -108.784525
9.273                0.944971037     -108.994156
9.274                0.944823369     -109.204322
9.275                0.944675424     -109.415025
9.276                0.944527204     -109.626264
9.277                0.944378712     -109.838042
9.278                0.944229952     -110.050357
9.279                0.944080925     -110.263212
9.28                 0.943931635     -110.476607
9.281                0.943782085     -110.690542
9.282                0.943632278     -110.905018
9.283                0.943482216     -111.120035
9.284                0.943331904     -111.335595
9.285                0.943181343     -111.551698
9.286                0.943030537     -111.768344
9.287                 0.94287949     -111.985534
9.288                0.942728204     -112.203269
9.289                0.942576683     -112.421549
9.29                  0.94242493     -112.640374
9.291                0.942272949     -112.859746
9.292                0.942120742     -113.079665
9.293                0.941968315      -113.30013
9.294                0.941815669     -113.521143
9.295                0.941662809     -113.742705
9.296                0.941509738     -113.964815
9.297                 0.94135646     -114.187474
9.298                0.941202978     -114.410683
9.299                0.941049297     -114.634441
9.3                   0.94089542      -114.85875
9.301                 0.94074135     -115.083609
9.302                0.940587093      -115.30902
9.303                0.940432651     -115.534982
9.304                 0.94027803     -115.761496
9.305                0.940123232     -115.988562
9.306                0.939968262      -116.21618
9.307                0.939813124     -116.444351
9.308                0.939657822     -116.673075
9.309                0.939502361     -116.902353
9.31                 0.939346744     -117.132183
9.311                0.939190977     -117.362568
9.312                0.939035063     -117.593507
9.313                0.938879006     -117.824999
9.314                0.938722813     -118.057046
9.315                0.938566486     -118.289648
9.316                 0.93841003     -118.522804
9.317                0.938253451     -118.756515
9.318                0.938096752     -118.990782
9.319                0.937939939     -119.225603
9.32                 0.937783016     -119.460979
9.321                0.937625988      -119.69691
9.322                0.937468861     -119.933397
9.323                0.937311638     -120.170439
9.324                0.937154324     -120.408036
9.325                0.936996926     -120.646188
9.326                0.936839448     -120.884896
9.327                0.936681894     -121.124158
9.328                0.936524271     -121.363976
9.329                0.936366583     -121.604349
9.33                 0.936208836     -121.845277
9.331                0.936051035     -122.086759
9.332                0.935893186     -122.328796
9.333                0.935735293     -122.571388
9.334                0.935577363     -122.814534
9.335                  0.9354194     -123.058234
9.336                0.935261411     -123.302488
9.337                  0.9351034     -123.547295
9.338                0.934945375     -123.792656
9.339                0.934787339      -124.03857
9.34                   0.9346293     -124.285037
9.341                0.934471263     -124.532056
9.342                0.934313233     -124.779627
9.343                0.934155218      -125.02775
9.344                0.933997222     -125.276424
9.345                0.933839251     -125.525649
9.346                0.933681313     -125.775424
9.347                0.933523412     -126.025749
9.348                0.933365555     -126.276624
9.349                0.933207749     -126.528048
9.35                 0.933049999      -126.78002
9.351                0.932892312      -127.03254
9.352                0.932734694     -127.285607
9.353                0.932577151     -127.539221
9.354                 0.93241969     -127.793382
9.355                0.932262318     -128.048087
9.356                0.932105041     -128.303337
9.357                0.931947865     -128.559132
9.358                0.931790797     -128.815469
9.359                0.931633844     -129.072349
9.36                 0.931477013     -129.329771
9.361                 0.93132031     -129.587734
9.362                0.931163742     -129.846237
9.363                0.931007316      -130.10528
9.364                0.930851039     -130.364861
9.365                0.930694918     -130.624979
9.366                0.930538959     -130.885634
9.367                 0.93038317     -131.146825
9.368                0.930227558     -131.408551
9.369                 0.93007213      -131.67081
9.37                 0.929916893     -131.933602
9.371                0.929761854     -132.196926
9.372                0.929607021      -132.46078
9.373                  0.9294524     -132.725163
9.374                0.929297999     -132.990075
9.375                0.929143826     -133.255514
9.376                0.928989888     -133.521479
9.377                0.928836192     -133.787969
9.378                0.928682745     -134.054983
9.379                0.928529555     -134.322518
9.38                 0.928376631     -134.590575
9.381                0.928223978     -134.859151
9.382                0.928071605     -135.128245
9.383                 0.92791952     -135.397857
9.384                 0.92776773     -135.667984
9.385                0.927616243     -135.938625
9.386                0.927465066     -136.209778
9.387                0.927314207     -136.481443
9.388                0.927163675     -136.753617
9.389                0.927013477     -137.026299
9.39                  0.92686362     -137.299488
9.391                0.926714113     -137.573182
9.392                0.926564964     -137.847379
9.393                 0.92641618     -138.122077
9.394                 0.92626777     -138.397275
9.395                0.926119741     -138.672972
9.396                0.925972102     -138.949165
9.397                0.925824861     -139.225852
9.398                0.925678025     -139.503033
9.399                0.925531603     -139.780704
9.4                  0.925385602     -140.058865
9.401                0.925240032     -140.337512
9.402                  0.9250949     -140.616645
9.403                0.924950214     -140.896261
9.404                0.924805983     -141.176359
9.405                0.924662214     -141.456936
9.406                0.924518916      -141.73799
9.407                0.924376098      -142.01952
9.408                0.924233767     -142.301523
9.409                0.924091932     -142.583996
9.41                   0.9239506     -142.866939
9.411                0.923809782     -143.150348
9.412                0.923669483     -143.434222
9.413                0.923529714     -143.718557
9.414                0.923390482     -144.003353
9.415                0.923251795     -144.288606
9.416                0.923113663     -144.574314
9.417                0.922976093     -144.860475
9.418                0.922839093     -145.147087
9.419                0.922702673     -145.434147
9.42                  0.92256684     -145.721652
9.421                0.922431603       -146.0096
9.422                 0.92229697     -146.297989
9.423                0.922162949     -146.586816
9.424                0.922029549     -146.876078
9.425                0.921896779     -147.165773
9.426                0.921764646     -147.455898
9.427                0.921633159     -147.746451
9.428                0.921502326     -148.037428
9.429                0.921372156     -148.328827
9.43                 0.921242657     -148.620646
9.431                0.921113837     -148.912881
9.432                0.920985705      -149.20553
9.433                0.920858269      -149.49859
9.434                0.920731537     -149.792057
9.435                0.920605518      -150.08593
9.436                0.920480219     -150.380205
9.437                0.920355649     -150.674878
9.438                0.920231817     -150.969948
9.439                 0.92010873     -151.265411
9.44                 0.919986396     -151.561264
9.441                0.919864825     -151.857504
9.442                0.919744023     -152.154128
9.443                   0.919624     -152.451133
9.444                0.919504762     -152.748515
9.445                0.919386319     -153.046271
9.446                0.919268678     -153.344399
9.447                0.919151847     -153.642894
9.448                0.919035835     -153.941755
9.449                0.918920649     -154.240976
9.45                 0.918806297     -154.540555
9.451                0.918692787     -154.840489
9.452                0.918580127     -155.140774
9.453                0.918468325     -155.441407
9.454                0.918357388     -155.742384
9.455                0.918247325     -156.043701
9.456                0.918138142     -156.345357
9.457                0.918029849     -156.647346
9.458                0.917922451     -156.949665
9.459                0.917815957     -157.252311
9.46                 0.917710375      -157.55528
9.461                0.917605711     -157.858568
9.462                0.917501973     -158.162173
9.463                 0.91739917     -158.466089
9.464                0.917297307     -158.770314
9.465                0.917196392     -159.074843
9.466                0.917096433     -159.379673
9.467                0.916997437     -159.684801
9.468                 0.91689941     -159.990221
9.469                 0.91680236     -160.295932
9.47                 0.916706295     -160.601927
9.471                 0.91661122     -160.908205
9.472                0.916517142      -161.21476
9.473                 0.91642407      -161.52159
9.474                0.916332008     -161.828689
9.475                0.916240965     -162.136054
9.476                0.916150946     -162.443682
9.477                0.916061959     -162.751567
9.478                0.915974009     -163.059707
9.479                0.915887103     -163.368096
9.48                 0.915801248     -163.676731
9.481                 0.91571645     -163.985608
9.482                0.915632715     -164.294722
9.483                0.915550049      -164.60407
9.484                0.915468459     -164.913647
9.485                 0.91538795      -165.22345
9.486                0.915308528     -165.533473
9.487                0.915230199     -165.843713
9.488                0.915152969     -166.154166
9.489                0.915076843     -166.464826
9.49                 0.915001828     -166.775691
9.491                0.914927928     -167.086756
9.492                 0.91485515     -167.398015
9.493                0.914783498     -167.709466
9.494                0.914712978     -168.021104
9.495                0.914643595     -168.332924
9.496                0.914575354     -168.644921
9.497                 0.91450826     -168.957093
9.498                0.914442318     -169.269433
9.499                0.914377533     -169.581939
9.5                   0.91431391     -169.894604
9.501                0.914251453     -170.207426
9.502                0.914190166     -170.520399
9.503                0.914130056     -170.833519
9.504                0.914071125     -171.146781
9.505                0.914013378     -171.460182
9.506                0.913956819     -171.773715
9.507                0.913901452     -172.087378
9.508                0.913847282     -172.401165
9.509                0.913794312     -172.715072
9.51                 0.913742546     -173.029094
9.511                0.913691988     -173.343227
9.512                0.913642641     -173.657466
9.513                0.913594508     -173.971806
9.514                0.913547594     -174.286244
9.515                0.913501902     -174.600774
9.516                0.913457434     -174.915391
9.517                0.913414194     -175.230092
9.518                0.913372185     -175.544871
9.519                 0.91333141     -175.859723
9.52                 0.913291871     -176.174646
9.521                0.913253572     -176.489632
9.522                0.913216514     -176.804679
9.523                  0.9131807      -177.11978
9.524                0.913146133     -177.434932
9.525                0.913112814      -177.75013
9.526                0.913080747      -178.06537
9.527                0.913049932     -178.380646
9.528                0.913020373     -178.695953
9.529                 0.91299207     -179.011288
9.53                 0.912965026     -179.326645
9.531                0.912939242      -179.64202
9.532                0.912914719     -179.957408
9.533                 0.91289146      179.727195
9.534                0.912869464      179.411795
9.535                0.912848734      179.096396
9.536                0.912829271      178.781002
9.537                0.912811075      178.465619
9.538                0.912794147      178.150251
9.539                0.912778488      177.834903
9.54                 0.912764099      177.519579
9.541                0.912750979      177.204284
9.542                0.912739131      176.889023
9.543                0.912728553      176.573801
9.544                0.912719246      176.258622
9.545                 0.91271121      175.943491
9.546                0.912704445      175.628412
9.547                0.912698951       175.31339
9.548                0.912694727      174.998431
9.549                0.912691774      174.683538
9.55                  0.91269009      174.368716
9.551                0.912689676      174.053969
9.552                 0.91269053      173.739304
9.553                0.912692651      173.424723
9.554                 0.91269604      173.110232
9.555                0.912700693      172.795835
9.556                0.912706612      172.481537
9.557                0.912713793      172.167343
9.558                0.912722237      171.853257
9.559                0.912731941      171.539284
9.56                 0.912742904      171.225427
9.561                0.912755124      170.911693
9.562                  0.9127686      170.598085
9.563                0.912783329      170.284607
9.564                 0.91279931      169.971265
9.565                 0.91281654      169.658063
9.566                0.912835017      169.345006
9.567                 0.91285474      169.032097
9.568                0.912875705      168.719342
9.569                 0.91289791      168.406744
9.57                 0.912921353      168.094309
9.571                0.912946031       167.78204
9.572                 0.91297194      167.469943
9.573                0.912999079      167.158021
9.574                0.913027443      166.846279
9.575                0.913057031      166.534721
9.576                0.913087838      166.223352
9.577                0.913119862      165.912176
9.578                0.913153099      165.601197
9.579                0.913187545      165.290419
9.58                 0.913223198      164.979848
9.581                0.913260053      164.669486
9.582                0.913298106      164.359339
9.583                0.913337354      164.049411
9.584                0.913377793      163.739705
9.585                0.913419419      163.430227
9.586                0.913462227      163.120979
9.587                0.913506213      162.811967
9.588                0.913551374      162.503194
9.589                0.913597704      162.194665
9.59                   0.9136452      161.886384
9.591                0.913693856      161.578355
9.592                0.913743668      161.270581
9.593                0.913794631      160.963067
9.594                0.913846741      160.655817
9.595                0.913899992      160.348834
9.596                 0.91395438      160.042124
9.597                0.914009899      159.735689
9.598                0.914066545      159.429534
9.599                0.914124311      159.123663
9.6                  0.914183194      158.818078
9.601                0.914243188      158.512786