! TOUCHSTONE file generated by CST DESIGN STUDIO
! Date and time: Tue Jan 28 13:35:03 2025
! Project name: C:\Work\MatlabApps\UnitCellOptimizationMatlabNew\CST\unitcell.cst
! Tree item: Tasks\Sweep1\SPara1\S-Parameters
! Header version: 2024
! Port assignment regex: !\s*Touchstone port\s*([0-9]+)\s*=\s*(CST MWS port|CST DES external port|CST DES block port)\s*(.+)\s* \(\"(.*)\"\)(\s*mode\s*([0-9]+))?.*
! Touchstone port assignment:
! Touchstone port 1 = CST DES external port 1 ("")
# GHz S MA R 50
9                    0.745658227     -132.727068
9.001                0.744862224     -133.059418
9.002                0.744067595     -133.392785
9.003                0.743274387      -133.72717
9.004                0.742482652     -134.062571
9.005                0.741692439     -134.398989
9.006                0.740903799     -134.736424
9.007                0.740116783     -135.074874
9.008                0.739331441      -135.41434
9.009                0.738547826     -135.754822
9.01                 0.737765988     -136.096317
9.011                0.736985982     -136.438827
9.012                0.736207858     -136.782349
9.013                 0.73543167     -137.126883
9.014                 0.73465747     -137.472429
9.015                0.733885313     -137.818985
9.016                0.733115252     -138.166549
9.017                0.732347341     -138.515122
9.018                0.731581633     -138.864701
9.019                0.730818185     -139.215285
9.02                 0.730057051     -139.566872
9.021                0.729298285     -139.919462
9.022                0.728541943     -140.273053
9.023                0.727788081     -140.627642
9.024                0.727036754     -140.983228
9.025                0.726288019     -141.339809
9.026                0.725541932     -141.697382
9.027                0.724798549     -142.055947
9.028                0.724057928     -142.415501
9.029                0.723320125     -142.776041
9.03                 0.722585197     -143.137564
9.031                0.721853201     -143.500069
9.032                0.721124196     -143.863553
9.033                0.720398239     -144.228013
9.034                0.719675387     -144.593447
9.035                0.718955699     -144.959851
9.036                0.718239233     -145.327222
9.037                0.717526047     -145.695557
9.038                0.716816199     -146.064854
9.039                0.716109748     -146.435108
9.04                 0.715406753     -146.806316
9.041                0.714707272     -147.178475
9.042                0.714011364     -147.551581
9.043                0.713319087     -147.925631
9.044                0.712630501     -148.300619
9.045                0.711945665     -148.676543
9.046                0.711264638     -149.053399
9.047                0.710587478     -149.431181
9.048                0.709914245     -149.809886
9.049                0.709244997     -150.189509
9.05                 0.708579794     -150.570046
9.051                0.707918694     -150.951492
9.052                0.707261757     -151.333842
9.053                0.706609042     -151.717091
9.054                0.705960607     -152.101234
9.055                 0.70531651     -152.486267
9.056                0.704676812     -152.872183
9.057                 0.70404157     -153.258978
9.058                0.703410843     -153.646645
9.059                0.702784688      -154.03518
9.06                 0.702163166     -154.424576
9.061                0.701546332     -154.814828
9.062                0.700934246     -155.205929
9.063                0.700326965     -155.597874
9.064                0.699724547     -155.990656
9.065                0.699127048     -156.384269
9.066                0.698534527     -156.778707
9.067                0.697947039     -157.173962
9.068                0.697364642     -157.570028
9.069                0.696787391     -157.966899
9.07                 0.696215344     -158.364566
9.071                0.695648555     -158.763024
9.072                0.695087081     -159.162265
9.073                0.694530975     -159.562281
9.074                0.693980294     -159.963065
9.075                0.693435092      -160.36461
9.076                0.692895423     -160.766908
9.077                 0.69236134     -161.169951
9.078                0.691832897      -161.57373
9.079                0.691310147     -161.978239
9.08                 0.690793142     -162.383469
9.081                0.690281935      -162.78941
9.082                0.689776576     -163.196056
9.083                0.689277119     -163.603398
9.084                0.688783612     -164.011426
9.085                0.688296106     -164.420133
9.086                0.687814651     -164.829508
9.087                0.687339297     -165.239544
9.088                0.686870091      -165.65023
9.089                0.686407082     -166.061559
9.09                 0.685950317     -166.473519
9.091                0.685499843     -166.886103
9.092                0.685055707       -167.2993
9.093                0.684617954     -167.713101
9.094                 0.68418663     -168.127495
9.095                0.683761778     -168.542474
9.096                0.683343444     -168.958026
9.097                0.682931669     -169.374142
9.098                0.682526496     -169.790812
9.099                0.682127968     -170.208025
9.1                  0.681736124      -170.62577
9.101                0.681351006     -171.044038
9.102                0.680972654     -171.462818
9.103                0.680601105     -171.882098
9.104                0.680236399     -172.301869
9.105                0.679878573     -172.722118
9.106                0.679527662     -173.142836
9.107                0.679183704      -173.56401
9.108                0.678846732     -173.985631
9.109                0.678516782     -174.407686
9.11                 0.678193886     -174.830164
9.111                0.677878077     -175.253053
9.112                0.677569387     -175.676343
9.113                0.677267847     -176.100022
9.114                0.676973485     -176.524077
9.115                0.676686333     -176.948497
9.116                0.676406416      -177.37327
9.117                0.676133764     -177.798385
9.118                0.675868402     -178.223829
9.119                0.675610356      -178.64959
9.12                  0.67535965     -179.075656
9.121                0.675116307     -179.502015
9.122                0.674880351     -179.928655
9.123                0.674651804      179.644437
9.124                0.674430685      179.217273
9.125                0.674217014      178.789866
9.126                0.674010811      178.362227
9.127                0.673812093       177.93437
9.128                0.673620877      177.506307
9.129                0.673437178      177.078051
9.13                 0.673261012      176.649613
9.131                0.673092393      176.221008
9.132                0.672931333      175.792248
9.133                0.672777844      175.363345
9.134                0.672631937      174.934312
9.135                0.672493621      174.505162
9.136                0.672362906      174.075908
9.137                0.672239798      173.646563
9.138                0.672124306       173.21714
9.139                0.672016434      172.787652
9.14                 0.671916187      172.358111
9.141                0.671823568       171.92853
9.142                0.671738581      171.498923
9.143                0.671661227      171.069303
9.144                0.671591505      170.639682
9.145                0.671529417      170.210073
9.146                0.671474959       169.78049
9.147                0.671428129      169.350944
9.148                0.671388925      168.921451
9.149                 0.67135734      168.492021
9.15                  0.67133337      168.062668
9.151                0.671317007      167.633406
9.152                0.671308244      167.204247
9.153                0.671307072      166.775203
9.154                0.671313481      166.346288
9.155                 0.67132746      165.917515
9.156                0.671348997      165.488896
9.157                 0.67137808      165.060445
9.158                0.671414694      164.632173
9.159                0.671458825      164.204094
9.16                 0.671510457      163.776221
9.161                0.671569572      163.348565
9.162                0.671636154       162.92114
9.163                0.671710183      162.493958
9.164                0.671791639      162.067032
9.165                0.671880502      161.640374
9.166                 0.67197675      161.213997
9.167                 0.67208036      160.787912
9.168                0.672191309      160.362133
9.169                0.672309571      159.936671
9.17                 0.672435123      159.511538
9.171                0.672567936      159.086747
9.172                0.672707985       158.66231
9.173                 0.67285524      158.238238
9.174                0.673009674      157.814545
9.175                0.673171254       157.39124
9.176                0.673339952      156.968337
9.177                0.673515735      156.545846
9.178                0.673698571       156.12378
9.179                0.673888427       155.70215
9.18                 0.674085268      155.280967
9.181                0.674289059      154.860242
9.182                0.674499764      154.439988
9.183                0.674717348      154.020215
9.184                0.674941773      153.600934
9.185                   0.675173      153.182156
9.186                0.675410991      152.763893
9.187                0.675655706      152.346154
9.188                0.675907105       151.92895
9.189                0.676165147      151.512293
9.19                  0.67642979      151.096193
9.191                0.676700992       150.68066
9.192                0.676978709      150.265704
9.193                0.677262899      149.851335
9.194                0.677553517      149.437564
9.195                0.677850517      149.024401
9.196                0.678153854      148.611856
9.197                0.678463482      148.199937
9.198                0.678779355      147.788656
9.199                0.679101424       147.37802
9.2                  0.679429642      146.968041
9.201                 0.67976396      146.558727
9.202                 0.68010433      146.150087
9.203                0.680450701      145.742131
9.204                0.680803025      145.334867
9.205                 0.68116125      144.928305
9.206                0.681525325      144.522452
9.207                  0.6818952      144.117319
9.208                0.682270822      143.712912
9.209                0.682652138      143.309241
9.21                 0.683039097      142.906313
9.211                0.683431645      142.504138
9.212                0.683829728      142.102722
9.213                0.684233294      141.702074
9.214                0.684642287      141.302202
9.215                0.685056653      140.903113
9.216                0.685476338      140.504814
9.217                0.685901285      140.107314
9.218                 0.68633144      139.710619
9.219                0.686766747      139.314737
9.22                 0.687207151      138.919674
9.221                0.687652593      138.525438
9.222                0.688103019      138.132036
9.223                0.688558372      137.739473
9.224                0.689018594      137.347757
9.225                0.689483629      136.956894
9.226                0.689953418       136.56689
9.227                0.690427906      136.177752
9.228                0.690907034      135.789485
9.229                0.691390744      135.402095
9.23                 0.691878978      135.015589
9.231                0.692371679      134.629971
9.232                0.692868789      134.245249
9.233                0.693370249      133.861426
9.234                0.693876001      133.478508
9.235                0.694385987      133.096501
9.236                0.694900148      132.715409
9.237                0.695418426      132.335238
9.238                0.695940763      131.955992
9.239                  0.6964671      131.577677
9.24                 0.696997379      131.200296
9.241                0.697531541      130.823854
9.242                0.698069528      130.448356
9.243                0.698611282      130.073805
9.244                0.699156745      129.700207
9.245                0.699705857      129.327565
9.246                0.700258562      128.955883
9.247                  0.7008148      128.585164
9.248                0.701374515      128.215413
9.249                0.701937647      127.846633
9.25                  0.70250414      127.478828
9.251                0.703073935         127.112
9.252                0.703646976      126.746154
9.253                0.704223204      126.381292
9.254                0.704802563      126.017417
9.255                0.705384995      125.654533
9.256                0.705970444      125.292641
9.257                0.706558853      124.931746
9.258                0.707150166      124.571849
9.259                0.707744325      124.212953
9.26                 0.708341276      123.855061
9.261                0.708940961      123.498174
9.262                0.709543327      123.142295
9.263                0.710148316      122.787427
9.264                0.710755874       122.43357
9.265                0.711365945      122.080728
9.266                0.711978477      121.728901
9.267                0.712593412      121.378093
9.268                0.713210699      121.028303
9.269                0.713830282      120.679535
9.27                 0.714452108      120.331788
9.271                0.715076124      119.985066
9.272                0.715702277      119.639368
9.273                0.716330514      119.294697
9.274                0.716960783      118.951053
9.275                0.717593031      118.608437
9.276                0.718227207      118.266851
9.277                0.718863259      117.926294
9.278                0.719501137      117.586769
9.279                0.720140789      117.248275
9.28                 0.720782164      116.910814
9.281                0.721425214      116.574385
9.282                0.722069888       116.23899
9.283                0.722716137      115.904628
9.284                0.723363911        115.5713
9.285                0.724013162      115.239006
9.286                0.724663842      114.907746
9.287                0.725315902      114.577521
9.288                0.725969296      114.248331
9.289                0.726623975      113.920174
9.29                 0.727279893      113.593052
9.291                0.727937004      113.266964
9.292                0.728595262       112.94191
9.293                 0.72925462      112.617889
9.294                0.729915034      112.294901
9.295                0.730576459      111.972946
9.296                0.731238849      111.652022
9.297                0.731902162      111.332131
9.298                0.732566353       111.01327
9.299                 0.73323138      110.695439
9.3                  0.733897198      110.378637
9.301                0.734563766      110.062864
9.302                0.735231041      109.748119
9.303                0.735898983        109.4344
9.304                0.736567549      109.121708
9.305                0.737236699      108.810039
9.306                0.737906392      108.499395
9.307                0.738576588      108.189772
9.308                0.739247248      107.881171
9.309                0.739918332       107.57359
9.31                 0.740589801      107.267028
9.311                0.741261618      106.961483
9.312                0.741933744      106.656954
9.313                0.742606142      106.353439
9.314                0.743278774      106.050938
9.315                0.743951603      105.749447
9.316                0.744624595      105.448967
9.317                0.745297711      105.149495
9.318                0.745970918      104.851029
9.319                0.746644179      104.553569
9.32                 0.747317461      104.257111
9.321                0.747990728      103.961655
9.322                0.748663948      103.667198
9.323                0.749337086      103.373739
9.324                 0.75001011      103.081276
9.325                0.750682986      102.789807
9.326                0.751355684      102.499329
9.327                 0.75202817      102.209841
9.328                0.752700414      101.921341
9.329                0.753372385      101.633827
9.33                 0.754044051      101.347297
9.331                0.754715384      101.061748
9.332                0.755386352      100.777178
9.333                0.756056926      100.493585
9.334                0.756727079      100.210968
9.335                 0.75739678      99.9293225
9.336                0.758066001      99.6486479
9.337                0.758734716      99.3689413
9.338                0.759402896      99.0902004
9.339                0.760070515       98.812423
9.34                 0.760737545      98.5356064
9.341                 0.76140396      98.2597485
9.342                0.762069736      97.9848467
9.343                0.762734845      97.7108985
9.344                0.763399263      97.4379015
9.345                0.764062965      97.1658533
9.346                0.764725927      96.8947512
9.347                0.765388125      96.6245927
9.348                0.766049534      96.3553752
9.349                0.766710133      96.0870963
9.35                 0.767369897      95.8197532
9.351                0.768028805      95.5533433
9.352                0.768686833      95.2878641
9.353                0.769343961      95.0233128
9.354                0.770000167      94.7596868
9.355                0.770655429      94.4969834
9.356                0.771309727      94.2351999
9.357                0.771963041      93.9743335
9.358                 0.77261535      93.7143816
9.359                0.773266634      93.4553413
9.36                 0.773916874        93.19721
9.361                0.774566052      92.9399848
9.362                0.775214148       92.683663
9.363                0.775861143      92.4282418
9.364                 0.77650702      92.1737183
9.365                0.777151762      91.9200897
9.366                 0.77779535      91.6673532
9.367                0.778437767       91.415506
9.368                0.779078997      91.1645452
9.369                0.779719023       90.914468
9.37                 0.780357829      90.6652714
9.371                0.780995399      90.4169526
9.372                0.781631718      90.1695088
9.373                0.782266769      89.9229369
9.374                 0.78290054      89.6772342
9.375                0.783533013      89.4323977
9.376                0.784164176      89.1884244
9.377                0.784794015      88.9453116
9.378                0.785422514      88.7030561
9.379                0.786049662      88.4616552
9.38                 0.786675444      88.2211059
9.381                0.787299848      87.9814052
9.382                 0.78792286      87.7425502
9.383                 0.78854447      87.5045379
9.384                0.789164664      87.2673654
9.385                0.789783431      87.0310298
9.386                0.790400759       86.795528
9.387                0.791016636      86.5608571
9.388                0.791631053      86.3270141
9.389                0.792243997      86.0939961
9.39                 0.792855459      85.8618002
9.391                0.793465428      85.6304232
9.392                0.794073894      85.3998623
9.393                0.794680847      85.1701145
9.394                0.795286278      84.9411768
9.395                0.795890177      84.7130463
9.396                0.796492535      84.4857199
9.397                0.797093344      84.2591947
9.398                0.797692595      84.0334678
9.399                 0.79829028      83.8085361
9.4                  0.798886389      83.5843966
9.401                0.799480917      83.3610465
9.402                0.800073853      83.1384827
9.403                0.800665192      82.9167022
9.404                0.801254926      82.6957022
9.405                0.801843048      82.4754796
9.406                0.802429551      82.2560314
9.407                0.803014429      82.0373548
9.408                0.803597674      81.8194467
9.409                0.804179281      81.6023042
9.41                 0.804759244      81.3859244
9.411                0.805337557      81.1703043
9.412                0.805914214      80.9554409
9.413                 0.80648921      80.7413313
9.414                 0.80706254      80.5279726
9.415                0.807634198      80.3153619
9.416                 0.80820418      80.1034961
9.417                0.808772481      79.8923725
9.418                0.809339096       79.681988
9.419                0.809904022      79.4723397
9.42                 0.810467253      79.2634248
9.421                0.811028787      79.0552403
9.422                0.811588619      78.8477834
9.423                0.812146745       78.641051
9.424                0.812703162      78.4350404
9.425                0.813257867      78.2297486
9.426                0.813810857      78.0251728
9.427                0.814362129      77.8213101
9.428                0.814911679      77.6181576
9.429                0.815459505      77.4157125
9.43                 0.816005605      77.2139718
9.431                0.816549977      77.0129328
9.432                0.817092617      76.8125927
9.433                0.817633524      76.6129484
9.434                0.818172696      76.4139973
9.435                0.818710132      76.2157365
9.436                0.819245829      76.0181632
9.437                0.819779785      75.8212746
9.438                0.820312001      75.6250678
9.439                0.820842474      75.4295401
9.44                 0.821371203      75.2346886
9.441                0.821898188      75.0405107
9.442                0.822423427      74.8470034
9.443                0.822946919      74.6541641
9.444                0.823468665        74.46199
9.445                0.823988663      74.2704783
9.446                0.824506914      74.0796263
9.447                0.825023416      73.8894312
9.448                 0.82553817      73.6998903
9.449                0.826051176      73.5110009
9.45                 0.826562434      73.3227603
9.451                0.827071944      73.1351657
9.452                0.827579707      72.9482145
9.453                0.828085722      72.7619039
9.454                 0.82858999      72.5762313
9.455                0.829092513       72.391194
9.456                 0.82959329      72.2067893
9.457                0.830092322      72.0230146
9.458                0.830589611      71.8398673
9.459                0.831085158      71.6573446
9.46                 0.831578962      71.4754439
9.461                0.832071027      71.2941626
9.462                0.832561352      71.1134982
9.463                 0.83304994      70.9334479
9.464                0.833536792      70.7540092
9.465                0.834021909      70.5751795
9.466                0.834505293      70.3969561
9.467                0.834986946      70.2193367
9.468                 0.83546687      70.0423184
9.469                0.835945066      69.8658989
9.47                 0.836421536      69.6900756
9.471                0.836896283      69.5148458
9.472                0.837369308      69.3402071
9.473                0.837840614       69.166157
9.474                0.838310203       68.992693
9.475                0.838778078      68.8198125
9.476                 0.83924424       68.647513
9.477                0.839708693      68.4757921
9.478                0.840171438      68.3046472
9.479                0.840632479       68.134076
9.48                 0.841091817      67.9640759
9.481                0.841549457      67.7946445
9.482                  0.8420054      67.6257794
9.483                0.842459649      67.4574781
9.484                0.842912208      67.2897382
9.485                 0.84336308      67.1225572
9.486                0.843812266      66.9559329
9.487                0.844259771      66.7898627
9.488                0.844705598      66.6243443
9.489                0.845149749      66.4593753
9.49                 0.845592229      66.2949534
9.491                 0.84603304      66.1310761
9.492                0.846472185      65.9677412
9.493                0.846909669      65.8049462
9.494                0.847345494      65.6426889
9.495                0.847779665       65.480967
9.496                0.848212184       65.319778
9.497                0.848643055      65.1591198
9.498                0.849072281      64.9989899
9.499                0.849499868      64.8393862
9.5                  0.849925817      64.6803063
9.501                0.850350134       64.521748
9.502                0.850772821       64.363709
9.503                0.851193883      64.2061871
9.504                0.851613323      64.0491799
9.505                0.852031146      63.8926854
9.506                0.852447355      63.7367012
9.507                0.852861954      63.5812251
9.508                0.853274947       63.426255
9.509                0.853686339      63.2717887
9.51                 0.854096133      63.1178238
9.511                0.854504334      62.9643584
9.512                0.854910945      62.8113901
9.513                0.855315971      62.6589169
9.514                0.855719417      62.5069366
9.515                0.856121285       62.355447
9.516                0.856521581       62.204446
9.517                0.856920309      62.0539315
9.518                0.857317472      61.9039014
9.519                0.857713077      61.7543535
9.52                 0.858107126      61.6052858
9.521                0.858499624      61.4566961
9.522                0.858890576      61.3085824
9.523                0.859279985      61.1609427
9.524                0.859667857      61.0137748
9.525                0.860054196      60.8670767
9.526                0.860439007      60.7208463
9.527                0.860822293      60.5750817
9.528                0.861204059      60.4297807
9.529                0.861584311      60.2849414
9.53                 0.861963052      60.1405618
9.531                0.862340287      59.9966398
9.532                0.862716021      59.8531734
9.533                0.863090258      59.7101608
9.534                0.863463002      59.5675998
9.535                 0.86383426      59.4254885
9.536                0.864204034      59.2838251
9.537                0.864572331      59.1426074
9.538                0.864939153      59.0018336
9.539                0.865304507      58.8615018
9.54                 0.865668397      58.7216099
9.541                0.866030827      58.5821562
9.542                0.866391803      58.4431386
9.543                0.866751329      58.3045554
9.544                0.867109409      58.1664045
9.545                0.867466049      58.0286842
9.546                0.867821253      57.8913925
9.547                0.868175026      57.7545276
9.548                0.868527373      57.6180875
9.549                0.868878298      57.4820706
9.55                 0.869227807      57.3464749
9.551                0.869575904      57.2112985
9.552                0.869922593      57.0765398
9.553                 0.87026788      56.9421967
9.554                 0.87061177      56.8082676
9.555                0.870954267      56.6747507
9.556                0.871295376      56.5416441
9.557                0.871635102       56.408946
9.558                 0.87197345      56.2766547
9.559                0.872310424      56.1447685
9.56                 0.872646029      56.0132855
9.561                0.872980271       55.882204
9.562                0.873313154      55.7515222
9.563                0.873644682      55.6212385
9.564                0.873974861       55.491351
9.565                0.874303695      55.3618581
9.566                 0.87463119      55.2327581
9.567                0.874957349      55.1040492
9.568                0.875282179      54.9757297
9.569                0.875605683       54.847798
9.57                 0.875927867      54.7202524
9.571                0.876248734      54.5930912
9.572                0.876568291      54.4663127
9.573                0.876886542      54.3399153
9.574                0.877203492      54.2138973
9.575                0.877519145       54.088257
9.576                0.877833507      53.9629929
9.577                0.878146581      53.8381033
9.578                0.878458374      53.7135866
9.579                0.878768889      53.5894412
9.58                 0.879078131      53.4656654
9.581                0.879386106      53.3422577
9.582                0.879692818      53.2192164
9.583                0.879998272        53.09654
9.584                0.880302472       52.974227
9.585                0.880605423      52.8522756
9.586                 0.88090713      52.7306844
9.587                0.881207599      52.6094519
9.588                0.881506832      52.4885764
9.589                0.881804836      52.3680564
9.59                 0.882101615      52.2478904
9.591                0.882397173      52.1280768
9.592                0.882691516      52.0086142
9.593                0.882984648       51.889501
9.594                0.883276573      51.7707357
9.595                0.883567297      51.6523168
9.596                0.883856825      51.5342429
9.597                0.884145159      51.4165124
9.598                0.884432307      51.2991238
9.599                0.884718271      51.1820757
9.6                  0.885003057      51.0653666