! TOUCHSTONE file generated by CST DESIGN STUDIO
! Date and time: Wed Feb  5 13:47:40 2025
! Project name: C:\Work\MatlabApps\UnitCellOptimizationMatlab\CST\unitcell.cst
! Tree item: Tasks\Sweep1\SPara1\S-Parameters
! Header version: 2024
! Port assignment regex: !\s*Touchstone port\s*([0-9]+)\s*=\s*(CST MWS port|CST DES external port|CST DES block port)\s*(.+)\s* \(\"(.*)\"\)(\s*mode\s*([0-9]+))?.*
! Touchstone port assignment:
! Touchstone port 1 = CST DES external port 1 ("")
# GHz S MA R 50
9                    0.703437792      -102.90625
9.001                0.702295598     -103.167506
9.002                0.701149955     -103.429881
9.003                0.700000881     -103.693382
9.004                0.698848395     -103.958015
9.005                0.697692518     -104.223786
9.006                0.696533269       -104.4907
9.007                0.695370669     -104.758763
9.008                0.694204741     -105.027981
9.009                0.693035506      -105.29836
9.01                 0.691862987     -105.569907
9.011                0.690687209     -105.842626
9.012                0.689508195     -106.116525
9.013                 0.68832597     -106.391609
9.014                0.687140559     -106.667884
9.015                 0.68595199     -106.945357
9.016                0.684760289     -107.224032
9.017                0.683565484     -107.503918
9.018                0.682367604     -107.785019
9.019                0.681166677     -108.067342
9.02                 0.679962733     -108.350893
9.021                0.678755803     -108.635678
9.022                0.677545919     -108.921704
9.023                0.676333113     -109.208977
9.024                0.675117417     -109.497502
9.025                0.673898866     -109.787287
9.026                0.672677493     -110.078338
9.027                0.671453334      -110.37066
9.028                0.670226426     -110.664261
9.029                0.668996805     -110.959146
9.03                 0.667764509     -111.255323
9.031                0.666529576     -111.552797
9.032                0.665292046     -111.851574
9.033                0.664051959     -112.151662
9.034                0.662809357     -112.453066
9.035                 0.66156428     -112.755794
9.036                0.660316773     -113.059851
9.037                0.659066879     -113.365243
9.038                0.657814641     -113.671979
9.039                0.656560107     -113.980063
9.04                 0.655303322     -114.289502
9.041                0.654044334     -114.600304
9.042                0.652783191     -114.912474
9.043                0.651519942     -115.226018
9.044                0.650254637     -115.540945
9.045                0.648987327     -115.857259
9.046                0.647718065     -116.174967
9.047                0.646446903     -116.494076
9.048                0.645173895     -116.814593
9.049                0.643899096     -117.136524
9.05                 0.642622562     -117.459875
9.051                0.641344351     -117.784653
9.052                0.640064519     -118.110864
9.053                0.638783126     -118.438515
9.054                0.637500232     -118.767613
9.055                0.636215897     -119.098164
9.056                0.634930184     -119.430174
9.057                0.633643155      -119.76365
9.058                0.632354875     -120.098598
9.059                0.631065409     -120.435024
9.06                 0.629774822     -120.772936
9.061                0.628483183     -121.112339
9.062                0.627190558      -121.45324
9.063                0.625897019     -121.795645
9.064                0.624602634     -122.139561
9.065                0.623307475     -122.484993
9.066                0.622011615     -122.831948
9.067                0.620715128     -123.180432
9.068                0.619418088     -123.530452
9.069                0.618120571     -123.882013
9.07                 0.616822655     -124.235122
9.071                0.615524416     -124.589785
9.072                0.614225934     -124.946008
9.073                0.612927289     -125.303796
9.074                0.611628564     -125.663156
9.075                0.610329839     -126.024094
9.076                0.609031199     -126.386615
9.077                0.607732729     -126.750725
9.078                0.606434514      -127.11643
9.079                0.605136641     -127.483736
9.08                 0.603839198     -127.852649
9.081                0.602542274     -128.223173
9.082                0.601245961     -128.595314
9.083                0.599950348     -128.969078
9.084                 0.59865553      -129.34447
9.085                0.597361598     -129.721496
9.086                0.596068649      -130.10016
9.087                0.594776778     -130.480467
9.088                0.593486082     -130.862423
9.089                 0.59219666     -131.246032
9.09                 0.590908609       -131.6313
9.091                0.589622032      -132.01823
9.092                0.588337029     -132.406828
9.093                0.587053703     -132.797098
9.094                0.585772157     -133.189045
9.095                0.584492497     -133.582672
9.096                0.583214828     -133.977984
9.097                0.581939256     -134.374985
9.098                0.580665891     -134.773678
9.099                 0.57939484     -135.174068
9.1                  0.578126215     -135.576158
9.101                0.576860126     -135.979952
9.102                0.575596684     -136.385453
9.103                0.574336004     -136.792664
9.104                  0.5730782     -137.201589
9.105                0.571823387     -137.612229
9.106                 0.57057168     -138.024589
9.107                0.569323197     -138.438669
9.108                0.568078057     -138.854474
9.109                0.566836377     -139.272005
9.11                 0.565598279     -139.691263
9.111                0.564363883     -140.112252
9.112                 0.56313331     -140.534972
9.113                0.561906684     -140.959425
9.114                0.560684128     -141.385612
9.115                0.559465767     -141.813534
9.116                0.558251725     -142.243192
9.117                0.557042129     -142.674587
9.118                0.555837105     -143.107719
9.119                0.554636781     -143.542588
9.12                 0.553441286     -143.979194
9.121                0.552250748     -144.417537
9.122                0.551065298     -144.857615
9.123                0.549885065     -145.299429
9.124                0.548710181     -145.742977
9.125                0.547540777     -146.188258
9.126                0.546376987      -146.63527
9.127                0.545218942     -147.084011
9.128                0.544066776     -147.534479
9.129                0.542920623     -147.986672
9.13                 0.541780617     -148.440586
9.131                0.540646894     -148.896219
9.132                0.539519588     -149.353567
9.133                0.538398836     -149.812627
9.134                0.537284772     -150.273394
9.135                0.536177535     -150.735864
9.136                0.535077259     -151.200033
9.137                0.533984083     -151.665896
9.138                0.532898142     -152.133446
9.139                0.531819575     -152.602679
9.14                 0.530748519     -153.073589
9.141                0.529685111     -153.546169
9.142                0.528629489     -154.020411
9.143                 0.52758179     -154.496311
9.144                0.526542152     -154.973858
9.145                0.525510712     -155.453047
9.146                0.524487607     -155.933868
9.147                0.523472975     -156.416313
9.148                0.522466953     -156.900373
9.149                0.521469678     -157.386039
9.15                 0.520481285       -157.8733
9.151                0.519501911     -158.362147
9.152                0.518531691     -158.852568
9.153                0.517570762     -159.344553
9.154                0.516619257     -159.838091
9.155                0.515677311     -160.333169
9.156                0.514745057     -160.829774
9.157                0.513822629     -161.327896
9.158                0.512910159     -161.827519
9.159                0.512007779     -162.328631
9.16                 0.511115618     -162.831218
9.161                0.510233808     -163.335265
9.162                0.509362478     -163.840757
9.163                0.508501755     -164.347678
9.164                0.507651766     -164.856014
9.165                0.506812638     -165.365748
9.166                0.505984496     -165.876863
9.167                0.505167463     -166.389342
9.168                0.504361663     -166.903167
9.169                0.503567216     -167.418321
9.17                 0.502784242     -167.934785
9.171                 0.50201286      -168.45254
9.172                0.501253188     -168.971567
9.173                0.500505341     -169.491846
9.174                0.499769433     -170.013357
9.175                0.499045577     -170.536079
9.176                0.498333883     -171.059991
9.177                0.497634462     -171.585071
9.178                 0.49694742     -172.111299
9.179                0.496272863      -172.63865
9.18                 0.495610896     -173.167103
9.181                0.494961619     -173.696633
9.182                0.494325133     -174.227219
9.183                0.493701536     -174.758835
9.184                0.493090923     -175.291457
9.185                0.492493389      -175.82506
9.186                0.491909025     -176.359619
9.187                0.491337921     -176.895108
9.188                0.490780163     -177.431502
9.189                0.490235836     -177.968773
9.19                 0.489705023     -178.506896
9.191                0.489187805     -179.045842
9.192                0.488684258     -179.585586
9.193                0.488194457      179.873902
9.194                0.487718476      179.332649
9.195                0.487256385      178.790684
9.196                 0.48680825      178.248036
9.197                0.486374137      177.704733
9.198                0.485954108      177.160805
9.199                0.485548223      176.616282
9.2                  0.485156538      176.071193
9.201                0.484779107      175.525568
9.202                0.484415981      174.979439
9.203                0.484067209      174.432836
9.204                0.483732836      173.885789
9.205                0.483412904      173.338329
9.206                0.483107454      172.790489
9.207                0.482816522      172.242299
9.208                0.482540141      171.693791
9.209                0.482278343      171.144997
9.21                 0.482031155      170.595949
9.211                0.481798602      170.046679
9.212                0.481580706      169.497219
9.213                0.481377486      168.947601
9.214                0.481188957      168.397858
9.215                0.481015132      167.848022
9.216                0.480856021      167.298126
9.217                0.480711629      166.748203
9.218                0.480581961      166.198284
9.219                0.480467018      165.648403
9.22                 0.480366795      165.098593
9.221                0.480281289      164.548885
9.222                0.480210489      163.999313
9.223                0.480154384      163.449909
9.224                 0.48011296      162.900706
9.225                0.480086198      162.351735
9.226                0.480074078      161.803031
9.227                0.480076575      161.254624
9.228                0.480093663      160.706546
9.229                0.480125312      160.158831
9.23                 0.480171489       159.61151
9.231                0.480232159      159.064614
9.232                0.480307283      158.518175
9.233                 0.48039682      157.972225
9.234                0.480500724      157.426794
9.235                 0.48061895      156.881915
9.236                0.480751447      156.337617
9.237                0.480898162      155.793931
9.238                0.481059041      155.250887
9.239                0.481234024      154.708516
9.24                 0.481423052      154.166848
9.241                 0.48162606      153.625911
9.242                0.481842984      153.085735
9.243                0.482073754       152.54635
9.244                  0.4823183      152.007783
9.245                0.482576547      151.470063
9.246                0.482848421      150.933218
9.247                0.483133843      150.397275
9.248                0.483432732      149.862263
9.249                0.483745006      149.328207
9.25                  0.48407058      148.795134
9.251                0.484409365      148.263071
9.252                0.484761274      147.732044
9.253                0.485126215      147.202077
9.254                0.485504094      146.673196
9.255                0.485894815      146.145426
9.256                0.486298281       145.61879
9.257                0.486714394      145.093313
9.258                0.487143052      144.569017
9.259                0.487584151      144.045927
9.26                 0.488037589      143.524064
9.261                0.488503258       143.00345
9.262                 0.48898105      142.484108
9.263                0.489470856      141.966057
9.264                0.489972566       141.44932
9.265                0.490486067      140.933917
9.266                0.491011244      140.419867
9.267                0.491547985      139.907189
9.268                0.492096171      139.395903
9.269                0.492655685      138.886028
9.27                 0.493226409      138.377581
9.271                0.493808223       137.87058
9.272                0.494401006      137.365042
9.273                0.495004636      136.860984
9.274                0.495618991      136.358423
9.275                0.496243946      135.857373
9.276                0.496879376       135.35785
9.277                0.497525158      134.859869
9.278                0.498181164      134.363445
9.279                0.498847267      133.868591
9.28                 0.499523341      133.375322
9.281                0.500209257      132.883649
9.282                0.500904887      132.393587
9.283                0.501610102      131.905146
9.284                0.502324771      131.418339
9.285                0.503048766      130.933177
9.286                0.503781956      130.449671
9.287                0.504524211      129.967832
9.288                  0.5052754      129.487669
9.289                0.506035391      129.009192
9.29                 0.506804055       128.53241
9.291                0.507581259      128.057332
9.292                0.508366872      127.583967
9.293                0.509160764      127.112323
9.294                0.509962802      126.642407
9.295                0.510772856      126.174225
9.296                0.511590794      125.707786
9.297                0.512416486      125.243096
9.298                0.513249801       124.78016
9.299                0.514090607      124.318984
9.3                  0.514938775      123.859574
9.301                0.515794175      123.401934
9.302                0.516656676       122.94607
9.303                 0.51752615      122.491985
9.304                0.518402467      122.039683
9.305                0.519285499      121.589168
9.306                0.520175117      121.140443
9.307                0.521071194      120.693511
9.308                0.521973603      120.248375
9.309                0.522882218      119.805036
9.31                 0.523796911      119.363497
9.311                0.524717557       118.92376
9.312                0.525644033      118.485826
9.313                0.526576213      118.049695
9.314                0.527513974      117.615369
9.315                0.528457193      117.182849
9.316                0.529405748      116.752134
9.317                0.530359517      116.323224
9.318                0.531318381      115.896119
9.319                0.532282218       115.47082
9.32                  0.53325091      115.047323
9.321                 0.53422434       114.62563
9.322                0.535202388      114.205738
9.323                0.536184939      113.787647
9.324                0.537171878      113.371353
9.325                0.538163088      112.956856
9.326                0.539158457      112.544153
9.327                0.540157871      112.133242
9.328                0.541161218       111.72412
9.329                0.542168387      111.316785
9.33                 0.543179268      110.911233
9.331                0.544193752      110.507462
9.332                 0.54521173      110.105467
9.333                0.546233095      109.705247
9.334                0.547257741      109.306796
9.335                0.548285562      108.910111
9.336                0.549316454      108.515188
9.337                0.550350314      108.122023
9.338                 0.55138704      107.730611
9.339                 0.55242653      107.340949
9.34                 0.553468685      106.953031
9.341                0.554513404      106.566853
9.342                0.555560591      106.182409
9.343                0.556610147      105.799696
9.344                0.557661977      105.418707
9.345                0.558715987      105.039438
9.346                0.559772081      104.661883
9.347                0.560830167      104.286037
9.348                0.561890154      103.911894
9.349                0.562951951      103.539448
9.35                 0.564015468      103.168694
9.351                0.565080616      102.799626
9.352                0.566147308      102.432238
9.353                0.567215458      102.066523
9.354                0.568284981      101.702476
9.355                0.569355791      101.340091
9.356                0.570427805       100.97936
9.357                0.571500943      100.620279
9.358                0.572575121       100.26284
9.359                0.573650261      99.9070365
9.36                 0.574726283      99.5528625
9.361                0.575803109      99.2003111
9.362                0.576880663      98.8493758
9.363                0.577958868      98.5000497
9.364                 0.57903765      98.1523261
9.365                0.580116935      97.8061982
9.366                0.581196649      97.4616589
9.367                0.582276722      97.1187015
9.368                0.583357083      96.7773189
9.369                0.584437662      96.4375042
9.37                 0.585518389      96.0992503
9.371                0.586599198      95.7625501
9.372                0.587680023      95.4273965
9.373                0.588760796      95.0937824
9.374                0.589841454      94.7617007
9.375                0.590921932       94.431144
9.376                0.592002169      94.1021054
9.377                0.593082101      93.7745774
9.378                 0.59416167      93.4485529
9.379                0.595240813      93.1240246
9.38                 0.596319474      92.8009852
9.381                0.597397593      92.4794274
9.382                0.598475114       92.159344
9.383                0.599551981      91.8407276
9.384                0.600628139      91.5235709
9.385                0.601703532      91.2078667
9.386                0.602778109      90.8936075
9.387                0.603851816       90.580786
9.388                0.604924602       90.269395
9.389                0.605996417       89.959427
9.39                  0.60706721      89.6508748
9.391                0.608136932       89.343731
9.392                0.609205536      89.0379884
9.393                0.610272975      88.7336396
9.394                0.611339201      88.4306772
9.395                 0.61240417      88.1290941
9.396                0.613467837      87.8288829
9.397                0.614530158      87.5300363
9.398                0.615591089      87.2325471
9.399                0.616650589      86.9364081
9.4                  0.617708617      86.6416119
9.401                0.618765131      86.3481513
9.402                0.619820091      86.0560192
9.403                0.620873459      85.7652084
9.404                0.621925196      85.4757116
9.405                0.622975264      85.1875217
9.406                0.624023627      84.9006316
9.407                0.625070249      84.6150341
9.408                0.626115094      84.3307222
9.409                0.627158127      84.0476887
9.41                 0.628199315      83.7659267
9.411                0.629238624       83.485429
9.412                0.630276022      83.2061886
9.413                0.631311477      82.9281987
9.414                0.632344957      82.6514521
9.415                0.633376432       82.375942
9.416                0.634405873      82.1016614
9.417                 0.63543325      81.8286035
9.418                0.636458535      81.5567613
9.419                0.637481699      81.2861281
9.42                 0.638502715       81.016697
9.421                0.639521558      80.7484612
9.422                  0.6405382       80.481414
9.423                0.641552616      80.2155487
9.424                0.642564782      79.9508586
9.425                0.643574673      79.6873369
9.426                0.644582266       79.424977
9.427                0.645587537      79.1637724
9.428                0.646590465      78.9037164
9.429                0.647591026      78.6448025
9.43                   0.6485892      78.3870242
9.431                0.649584967      78.1303749
9.432                0.650578304      77.8748482
9.433                0.651569194      77.6204377
9.434                0.652557616       77.367137
9.435                0.653543552      77.1149397
9.436                0.654526984      76.8638394
9.437                0.655507894      76.6138299
9.438                0.656486264      76.3649049
9.439                0.657462079      76.1170581
9.44                 0.658435321      75.8702833
9.441                0.659405976      75.6245743
9.442                0.660374027      75.3799251
9.443                 0.66133946      75.1363294
9.444                0.662302261      74.8937813
9.445                0.663262415      74.6522745
9.446                0.664219909      74.4118032
9.447                0.665174731      74.1723614
9.448                0.666126867       73.933943
9.449                0.667076305      73.6965422
9.45                 0.668023033       73.460153
9.451                0.668967041      73.2247697
9.452                0.669908316      72.9903864
9.453                0.670846849      72.7569972
9.454                0.671782629      72.5245966
9.455                0.672715647      72.2931786
9.456                0.673645893      72.0627376
9.457                0.674573358      71.8332681
9.458                0.675498033      71.6047642
9.459                 0.67641991      71.3772205
9.46                 0.677338981      71.1506314
9.461                0.678255238      70.9249913
9.462                0.679168674      70.7002947
9.463                0.680079283      70.4765362
9.464                0.680987057      70.2537104
9.465                 0.68189199      70.0318118
9.466                0.682794076       69.810835
9.467                 0.68369331      69.5907748
9.468                0.684589686      69.3716257
9.469                0.685483199      69.1533826
9.47                 0.686373845      68.9360403
9.471                0.687261618      68.7195933
9.472                0.688146516      68.5040367
9.473                0.689028533      68.2893652
9.474                0.689907667      68.0755738
9.475                0.690783914      67.8626573
9.476                 0.69165727      67.6506106
9.477                0.692527734      67.4394288
9.478                0.693395303      67.2291069
9.479                0.694259974      67.0196398
9.48                 0.695121746      66.8110227
9.481                0.695980616      66.6032507
9.482                0.696836584      66.3963188
9.483                0.697689647      66.1902223
9.484                0.698539805      65.9849563
9.485                0.699387057       65.780516
9.486                0.700231403      65.5768967
9.487                0.701072841      65.3740936
9.488                0.701911373      65.1721021
9.489                0.702746997      64.9709174
9.49                 0.703579715       64.770535
9.491                0.704409526      64.5709503
9.492                0.705236432      64.3721586
9.493                0.706060433      64.1741554
9.494                 0.70688153      63.9769362
9.495                0.707699725      63.7804965
9.496                0.708515019      63.5848318
9.497                0.709327414      63.3899377
9.498                 0.71013691      63.1958098
9.499                0.710943512      63.0024436
9.5                   0.71174722      62.8098349
9.501                0.712548036      62.6179793
9.502                0.713345965      62.4268725
9.503                0.714141007      62.2365103
9.504                0.714933166      62.0468883
9.505                0.715722445      61.8580024
9.506                0.716508846      61.6698484
9.507                0.717292374       61.482422
9.508                0.718073031      61.2957193
9.509                0.718850822       61.109736
9.51                 0.719625749      60.9244681
9.511                0.720397817      60.7399115
9.512                0.721167029      60.5560621
9.513                 0.72193339      60.3729161
9.514                0.722696904      60.1904693
9.515                0.723457575      60.0087178
9.516                0.724215408      59.8276577
9.517                0.724970407      59.6472851
9.518                0.725722577       59.467596
9.519                0.726471923      59.2885867
9.52                 0.727218449      59.1102533
9.521                0.727962161       58.932592
9.522                0.728703064       58.755599
9.523                0.729441163      58.5792705
9.524                0.730176464      58.4036029
9.525                0.730908971      58.2285923
9.526                0.731638691      58.0542351
9.527                0.732365629      57.8805276
9.528                 0.73308979      57.7074662
9.529                0.733811182      57.5350472
9.53                 0.734529808      57.3632672
9.531                0.735245677      57.1921224
9.532                0.735958792      57.0216093
9.533                0.736669162      56.8517245
9.534                0.737376791      56.6824643
9.535                0.738081687      56.5138254
9.536                0.738783856      56.3458042
9.537                0.739483303      56.1783973
9.538                0.740180036      56.0116013
9.539                0.740874061      55.8454128
9.54                 0.741565385      55.6798283
9.541                0.742254015      55.5148447
9.542                0.742939957      55.3504585
9.543                0.743623219      55.1866664
9.544                0.744303806      55.0234651
9.545                0.744981727      54.8608513
9.546                0.745656987      54.6988219
9.547                0.746329595      54.5373735
9.548                0.746999557       54.376503
9.549                0.747666881      54.2162071
9.55                 0.748331574      54.0564828
9.551                0.748993642      53.8973268
9.552                0.749653094       53.738736
9.553                0.750309937      53.5807074
9.554                0.750964178      53.4232378
9.555                0.751615824      53.2663241
9.556                0.752264884      53.1099633
9.557                0.752911364      52.9541524
9.558                0.753555273      52.7988884
9.559                0.754196617      52.6441682
9.56                 0.754835404      52.4899889
9.561                0.755471643      52.3363476
9.562                0.756105341      52.1832412
9.563                0.756736505       52.030667
9.564                0.757365144      51.8786219
9.565                0.757991265      51.7271031
9.566                0.758614875      51.5761077
9.567                0.759235984      51.4256329
9.568                0.759854598      51.2756758
9.569                0.760470726      51.1262337
9.57                 0.761084375      50.9773037
9.571                0.761695554      50.8288831
9.572                0.762304271      50.6809691
9.573                0.762910532       50.533559
9.574                0.763514347        50.38665
9.575                0.764115724      50.2402394
9.576                 0.76471467      50.0943246
9.577                0.765311194      49.9489029
9.578                0.765905303      49.8039715
9.579                0.766497006      49.6595279
9.58                  0.76708631      49.5155694
9.581                0.767673225      49.3720935
9.582                0.768257757      49.2290975
9.583                0.768839915      49.0865788
9.584                0.769419708       48.944535
9.585                0.769997143      48.8029633
9.586                0.770572228      48.6618614
9.587                0.771144972      48.5212267
9.588                0.771715383      48.3810567
9.589                0.772283469       48.241349
9.59                 0.772849238      48.1021009
9.591                0.773412698      47.9633102
9.592                0.773973858      47.8249743
9.593                0.774532725      47.6870909
9.594                0.775089308      47.5496574
9.595                0.775643615      47.4126716
9.596                0.776195654      47.2761311
9.597                0.776745433      47.1400334
9.598                0.777292961      47.0043763
9.599                0.777838246      46.8691573
9.6                  0.778381295      46.7343742
9.601                0.778922117      46.6000247