! TOUCHSTONE file generated by CST DESIGN STUDIO
! Date and time: Wed Feb  5 13:47:39 2025
! Project name: C:\Work\MatlabApps\UnitCellOptimizationMatlab\CST\unitcell.cst
! Tree item: Tasks\Sweep1\SPara1\S-Parameters
! Header version: 2024
! Port assignment regex: !\s*Touchstone port\s*([0-9]+)\s*=\s*(CST MWS port|CST DES external port|CST DES block port)\s*(.+)\s* \(\"(.*)\"\)(\s*mode\s*([0-9]+))?.*
! Touchstone port assignment:
! Touchstone port 1 = CST DES external port 1 ("")
# GHz S MA R 50
9                     0.54231722     -141.605762
9.001                0.541014305     -142.059823
9.002                0.539716541     -142.515892
9.003                 0.53842408     -142.973969
9.004                0.537137077     -143.434055
9.005                0.535855688     -143.896151
9.006                0.534580068     -144.360259
9.007                0.533310375     -144.826377
9.008                0.532046767     -145.294505
9.009                0.530789403     -145.764644
9.01                 0.529538443     -146.236792
9.011                0.528294048     -146.710948
9.012                0.527056379     -147.187111
9.013                0.525825598     -147.665278
9.014                0.524601868     -148.145447
9.015                0.523385352     -148.627615
9.016                0.522176215      -149.11178
9.017                0.520974621     -149.597937
9.018                0.519780735     -150.086083
9.019                0.518594722     -150.576214
9.02                  0.51741675     -151.068324
9.021                0.516246983     -151.562408
9.022                0.515085589     -152.058461
9.023                0.513932735     -152.556476
9.024                0.512788587     -153.056447
9.025                0.511653314     -153.558366
9.026                0.510527082     -154.062227
9.027                0.509410059     -154.568021
9.028                0.508302413     -155.075739
9.029                 0.50720431     -155.585372
9.03                 0.506115919     -156.096912
9.031                0.505037406     -156.610346
9.032                0.503968938     -157.125666
9.033                0.502910682      -157.64286
9.034                0.501862803     -158.161916
9.035                0.500825468     -158.682821
9.036                0.499798842     -159.205563
9.037                0.498783089     -159.730129
9.038                0.497778373     -160.256505
9.039                0.496784858     -160.784676
9.04                 0.495802707     -161.314626
9.041                 0.49483208     -161.846341
9.042                0.493873139     -162.379804
9.043                0.492926043     -162.914999
9.044                0.491990952     -163.451906
9.045                0.491068022      -163.99051
9.046                0.490157411      -164.53079
9.047                0.489259273     -165.072728
9.048                0.488373761     -165.616304
9.049                0.487501029     -166.161497
9.05                 0.486641227     -166.708286
9.051                0.485794504      -167.25665
9.052                0.484961008     -167.806566
9.053                0.484140885     -168.358011
9.054                0.483334277     -168.910962
9.055                0.482541329     -169.465395
9.056                0.481762179     -170.021285
9.057                0.480996966     -170.578606
9.058                0.480245826     -171.137332
9.059                0.479508892     -171.697438
9.06                 0.478786296     -172.258895
9.061                0.478078167     -172.821677
9.062                0.477384632     -173.385755
9.063                0.476705816     -173.951099
9.064                0.476041839     -174.517681
9.065                 0.47539282      -175.08547
9.066                0.474758877     -175.654437
9.067                0.474140123     -176.224549
9.068                0.473536668     -176.795775
9.069                 0.47294862     -177.368083
9.07                 0.472376084      -177.94144
9.071                0.471819161     -178.515813
9.072                0.471277951     -179.091169
9.073                0.470752549     -179.667472
9.074                0.470243046      179.755311
9.075                0.469749533      179.177216
9.076                0.469272094      178.598278
9.077                0.468810812      178.018534
9.078                0.468365766       177.43802
9.079                 0.46793703      176.856772
9.08                 0.467524676      176.274828
9.081                0.467128773      175.692226
9.082                0.466749384      175.109003
9.083                0.466386572      174.525198
9.084                0.466040391       173.94085
9.085                0.465710896      173.355996
9.086                0.465398136      172.770677
9.087                0.465102157      172.184932
9.088                   0.464823      171.598801
9.089                0.464560703      171.012323
9.09                   0.4643153      170.425539
9.091                0.464086821      169.838489
9.092                0.463875292      169.251214
9.093                0.463680734      168.663753
9.094                0.463503166      168.076148
9.095                0.463342601       167.48844
9.096                 0.46319905       166.90067
9.097                0.463072518      166.312878
9.098                0.462963008      165.725106
9.099                0.462870517      165.137395
9.1                  0.462795039      164.549785
9.101                0.462736563      163.962318
9.102                0.462695077      163.375034
9.103                 0.46267056      162.787975
9.104                0.462662993      162.201182
9.105                0.462672347      161.614694
9.106                0.462698594      161.028553
9.107                0.462741698      160.442799
9.108                0.462801623      159.857472
9.109                0.462878327      159.272612
9.11                 0.462971763       158.68826
9.111                0.463081883      158.104453
9.112                0.463208634      157.521233
9.113                0.463351958      156.938638
9.114                0.463511796      156.356706
9.115                0.463688082      155.775477
9.116                 0.46388075      155.194987
9.117                0.464089727      154.615276
9.118                 0.46431494       154.03638
9.119                0.464556309      153.458336
9.12                 0.464813753      152.881182
9.121                0.465087188      152.304952
9.122                0.465376524      151.729684
9.123                0.465681671      151.155411
9.124                0.466002534       150.58217
9.125                0.466339014      150.009994
9.126                0.466691013      149.438918
9.127                0.467058425      148.868974
9.128                0.467441144      148.300196
9.129                0.467839061      147.732616
9.13                 0.468252063      147.166266
9.131                0.468680037      146.601177
9.132                0.469122864       146.03738
9.133                0.469580424      145.474906
9.134                0.470052596      144.913783
9.135                0.470539254       144.35404
9.136                0.471040271      143.795707
9.137                0.471555517      143.238811
9.138                0.472084863      142.683379
9.139                0.472628173      142.129439
9.14                 0.473185312      141.577015
9.141                0.473756143      141.026134
9.142                0.474340526       140.47682
9.143                0.474938321      139.929098
9.144                0.475549384      139.382991
9.145                0.476173571      138.838522
9.146                0.476810737      138.295714
9.147                0.477460733      137.754588
9.148                0.478123411      137.215165
9.149                0.478798621      136.677466
9.15                 0.479486211      136.141511
9.151                 0.48018603      135.607319
9.152                0.480897922      135.074908
9.153                0.481621735      134.544297
9.154                0.482357312      134.015503
9.155                0.483104497      133.488543
9.156                0.483863133      132.963432
9.157                0.484633062      132.440187
9.158                0.485414125      131.918823
9.159                0.486206163      131.399354
9.16                 0.487009018      130.881793
9.161                0.487822527      130.366154
9.162                0.488646532      129.852449
9.163                0.489480871      129.340692
9.164                0.490325384      128.830892
9.165                0.491179909      128.323061
9.166                0.492044284      127.817209
9.167                0.492918349      127.313347
9.168                0.493801942      126.811483
9.169                0.494694902      126.311627
9.17                 0.495597067      125.813786
9.171                0.496508277      125.317968
9.172                 0.49742837       124.82418
9.173                0.498357186       124.33243
9.174                0.499294565      123.842722
9.175                0.500240346      123.355064
9.176                0.501194371       122.86946
9.177                 0.50215648      122.385916
9.178                0.503126515      121.904434
9.179                0.504104317       121.42502
9.18                  0.50508973      120.947677
9.181                0.506082596      120.472408
9.182                0.507082761      119.999214
9.183                0.508090067        119.5281
9.184                0.509104361      119.059065
9.185                 0.51012549      118.592113
9.186                  0.5111533      118.127242
9.187                0.512187638      117.664456
9.188                0.513228355      117.203752
9.189                0.514275299      116.745132
9.19                 0.515328322      116.288595
9.191                0.516387275       115.83414
9.192                0.517452012      115.381765
9.193                0.518522384       114.93147
9.194                0.519598249      114.483253
9.195                0.520679461      114.037111
9.196                0.521765877      113.593043
9.197                0.522857357      113.151044
9.198                0.523953758      112.711113
9.199                0.525054943      112.273247
9.2                  0.526160772      111.837441
9.201                0.527271108      111.403691
9.202                0.528385817      110.971995
9.203                0.529504762      110.542347
9.204                0.530627811      110.114743
9.205                0.531754833      109.689178
9.206                0.532885695      109.265647
9.207                0.534020269      108.844146
9.208                0.535158427      108.424668
9.209                0.536300042      108.007209
9.21                 0.537444989      107.591761
9.211                0.538593143       107.17832
9.212                0.539744381       106.76688
9.213                0.540898583      106.357433
9.214                0.542055628      105.949974
9.215                0.543215398      105.544496
9.216                0.544377776      105.140991
9.217                0.545542644      104.739454
9.218                 0.54670989      104.339876
9.219                  0.5478794      103.942252
9.22                 0.549051062      103.546573
9.221                0.550224765      103.152832
9.222                0.551400401      102.761021
9.223                0.552577863      102.371133
9.224                0.553757043       101.98316
9.225                0.554937838      101.597094
9.226                0.556120143      101.212927
9.227                0.557303857      100.830651
9.228                0.558488879      100.450257
9.229                0.559675109      100.071738
9.23                 0.560862451       99.695085
9.231                0.562050806      99.3202897
9.232                0.563240081      98.9473436
9.233                 0.56443018      98.5762382
9.234                0.565621013      98.2069647
9.235                0.566812487      97.8395147
9.236                0.568004513      97.4738792
9.237                0.569197002      97.1100496
9.238                0.570389867       96.748017
9.239                0.571583022      96.3877726
9.24                 0.572776384      96.0293075
9.241                0.573969868      95.6726126
9.242                0.575163393      95.3176791
9.243                0.576356878       94.964498
9.244                0.577550244      94.6130601
9.245                0.578743413      94.2633566
9.246                0.579936308      93.9153782
9.247                0.581128854      93.5691158
9.248                0.582320976      93.2245605
9.249                0.583512601      92.8817031
9.25                 0.584703658      92.5405344
9.251                0.585894075      92.2010452
9.252                0.587083785      91.8632266
9.253                0.588272717      91.5270692
9.254                0.589460806      91.1925641
9.255                0.590647986      90.8597019
9.256                0.591834192      90.5284736
9.257                 0.59301936        90.19887
9.258                0.594203428      89.8708821
9.259                0.595386335      89.5445006
9.26                 0.596568021      89.2197166
9.261                0.597748427      88.8965208
9.262                0.598927495      88.5749042
9.263                0.600105168      88.2548577
9.264                0.601281391      87.9363723
9.265                0.602456109      87.6194389
9.266                0.603629268      87.3040486
9.267                0.604800817      86.9901923
9.268                0.605970702      86.6778611
9.269                0.607138875      86.3670461
9.27                 0.608305285      86.0577382
9.271                0.609469885      85.7499287
9.272                0.610632626      85.4436086
9.273                0.611793462      85.1387691
9.274                0.612952349      84.8354015
9.275                 0.61410924      84.5334969
9.276                0.615264093      84.2330465
9.277                0.616416865      83.9340418
9.278                0.617567514      83.6364739
9.279                   0.618716      83.3403343
9.28                 0.619862282      83.0456144
9.281                0.621006321      82.7523055
9.282                 0.62214808      82.4603991
9.283                0.623287521      82.1698868
9.284                0.624424607        81.88076
9.285                0.625559304      81.5930103
9.286                0.626691575      81.3066294
9.287                0.627821388      81.0216088
9.288                0.628948709      80.7379403
9.289                0.630073506      80.4556157
9.29                 0.631195747      80.1746266
9.291                0.632315401      79.8949648
9.292                0.633432439      79.6166223
9.293                0.634546832       79.339591
9.294                 0.63565855      79.0638627
9.295                0.636767567      78.7894294
9.296                0.637873854      78.5162831
9.297                0.638977387       78.244416
9.298                0.640078138      77.9738201
9.299                0.641176084      77.7044875
9.3                    0.6422712      77.4364105
9.301                0.643363463      77.1695813
9.302                0.644452849      76.9039922
9.303                0.645539337      76.6396354
9.304                0.646622905      76.3765034
9.305                0.647703532      76.1145885
9.306                0.648781197      75.8538832
9.307                0.649855882        75.59438
9.308                0.650927566      75.3360715
9.309                0.651996233      75.0789502
9.31                 0.653061862      74.8230087
9.311                0.654124438      74.5682398
9.312                0.655183944      74.3146361
9.313                0.656240363      74.0621905
9.314                0.657293679      73.8108956
9.315                0.658343879      73.5607445
9.316                0.659390947      73.3117299
9.317                0.660434869      73.0638448
9.318                0.661475631      72.8170821
9.319                0.662513222       72.571435
9.32                 0.663547627      72.3268965
9.321                0.664578836      72.0834597
9.322                0.665606837      71.8411178
9.323                0.666631618      71.5998639
9.324                 0.66765317      71.3596913
9.325                0.668671482      71.1205933
9.326                0.669686544      70.8825633
9.327                0.670698348      70.6455945
9.328                0.671706884      70.4096805
9.329                0.672712145      70.1748147
9.33                 0.673714122      69.9409906
9.331                0.674712808      69.7082018
9.332                0.675708196      69.4764417
9.333                0.676700279      69.2457042
9.334                0.677689051      69.0159828
9.335                0.678674506      68.7872713
9.336                0.679656639      68.5595633
9.337                0.680635444      68.3328528
9.338                0.681610917      68.1071336
9.339                0.682583053      67.8823995
9.34                 0.683551849      67.6586445
9.341                  0.6845173      67.4358626
9.342                0.685479403      67.2140476
9.343                0.686438156      66.9931938
9.344                0.687393555      66.7732951
9.345                0.688345598      66.5543458
9.346                0.689294283      66.3363399
9.347                0.690239609      66.1192717
9.348                0.691181574      65.9031354
9.349                0.692120176      65.6879253
9.35                 0.693055416      65.4736357
9.351                0.693987292      65.2602611
9.352                0.694915804      65.0477957
9.353                0.695840952       64.836234
9.354                0.696762737      64.6255706
9.355                0.697681159      64.4157999
9.356                0.698596219      64.2069164
9.357                0.699507917      63.9989148
9.358                0.700416256      63.7917897
9.359                0.701321236      63.5855358
9.36                  0.70222286      63.3801477
9.361                0.703121129      63.1756202
9.362                0.704016046       62.971948
9.363                0.704907613      62.7691261
9.364                0.705795834      62.5671491
9.365                 0.70668071      62.3660121
9.366                0.707562245      62.1657099
9.367                0.708440442      61.9662374
9.368                0.709315306      61.7675897
9.369                0.710186838      61.5697618
9.37                 0.711055045      61.3727486
9.371                0.711919929      61.1765455
9.372                0.712781495      60.9811473
9.373                0.713639747      60.7865493
9.374                0.714494691      60.5927467
9.375                 0.71534633      60.3997348
9.376                0.716194671      60.2075086
9.377                0.717039717      60.0160637
9.378                0.717881475      59.8253952
9.379                0.718719949      59.6354985
9.38                 0.719555147      59.4463691
9.381                0.720387072      59.2580022
9.382                0.721215732      59.0703935
9.383                0.722041132      58.8835383
9.384                0.722863278      58.6974322
9.385                0.723682178      58.5120707
9.386                0.724497837      58.3274494
9.387                0.725310261      58.1435638
9.388                0.726119459      57.9604097
9.389                0.726925436      57.7779827
9.39                 0.727728199      57.5962785
9.391                0.728527757      57.4152927
9.392                0.729324115      57.2350213
9.393                0.730117281      57.0554598
9.394                0.730907263      56.8766042
9.395                0.731694068      56.6984504
9.396                0.732477704       56.520994
9.397                0.733258179      56.3442312
9.398                0.734035499      56.1681577
9.399                0.734809675      55.9927695
9.4                  0.735580712      55.8180627
9.401                 0.73634862      55.6440332
9.402                0.737113406       55.470677
9.403                 0.73787508      55.2979903
9.404                0.738633649      55.1259691
9.405                0.739389121      54.9546095
9.406                0.740141506      54.7839077
9.407                0.740890811      54.6138598
9.408                0.741637046       54.444462
9.409                0.742380219      54.2757106
9.41                 0.743120339      54.1076018
9.411                0.743857415      53.9401319
9.412                0.744591455      53.7732972
9.413                 0.74532247      53.6070939
9.414                0.746050467      53.4415185
9.415                0.746775456      53.2765673
9.416                0.747497446      53.1122367
9.417                0.748216446      52.9485232
9.418                0.748932465      52.7854231
9.419                0.749645514       52.622933
9.42                   0.7503556      52.4610493
9.421                0.751062735      52.2997685
9.422                0.751766926      52.1390873
9.423                0.752468183      51.9790021
9.424                0.753166517      51.8195096
9.425                0.753861935      51.6606063
9.426                 0.75455445       51.502289
9.427                0.755244068      51.3445541
9.428                0.755930801      51.1873985
9.429                0.756614659      51.0308188
9.43                  0.75729565      50.8748118
9.431                0.757973784      50.7193741
9.432                0.758649072      50.5645026
9.433                0.759321523       50.410194
9.434                0.759991147      50.2564452
9.435                0.760657953       50.103253
9.436                0.761321953      49.9506142
9.437                0.761983154      49.7985256
9.438                0.762641569      49.6469843
9.439                0.763297205      49.4959871
9.44                 0.763950074      49.3455309
9.441                0.764600185      49.1956127
9.442                0.765247549      49.0462295
9.443                0.765892174      48.8973782
9.444                0.766534072      48.7490559
9.445                0.767173252      48.6012597
9.446                0.767809724      48.4539864
9.447                0.768443499      48.3072333
9.448                0.769074585      48.1609975
9.449                0.769702994      48.0152759
9.45                 0.770328735      47.8700659
9.451                0.770951819      47.7253644
9.452                0.771572255      47.5811687
9.453                0.772190053       47.437476
9.454                0.772805224      47.2942834
9.455                0.773417777      47.1515882
9.456                0.774027723      47.0093877
9.457                0.774635071       46.867679
9.458                0.775239832      46.7264595
9.459                0.775842015      46.5857265
9.46                 0.776441631      46.4454772
9.461                 0.77703869       46.305709
9.462                0.777633202      46.1664193
9.463                0.778225176      46.0276053
9.464                0.778814623      45.8892646
9.465                0.779401553      45.7513944
9.466                0.779985975      45.6139922
9.467                  0.7805679      45.4770555
9.468                0.781147337      45.3405816
9.469                0.781724297       45.204568
9.47                  0.78229879      45.0690122
9.471                0.782870825      44.9339118
9.472                0.783440412      44.7992641
9.473                0.784007561      44.6650669
9.474                0.784572282      44.5313175
9.475                0.785134586      44.3980135
9.476                0.785694481      44.2651526
9.477                0.786251978      44.1327322
9.478                0.786807086      44.0007501
9.479                0.787359815      43.8692038
9.48                 0.787910176       43.738091
9.481                0.788458177      43.6074093
9.482                0.789003829      43.4771564
9.483                0.789547141        43.34733
9.484                0.790088123      43.2179277
9.485                0.790626785      43.0889472
9.486                0.791163135      42.9603864
9.487                0.791697185      42.8322429
9.488                0.792228944      42.7045145
9.489                 0.79275842      42.5771989
9.49                 0.793285624      42.4502939
9.491                0.793810566      42.3237973
9.492                0.794333254       42.197707
9.493                0.794853699      42.0720207
9.494                0.795371909      41.9467363
9.495                0.795887895      41.8218516
9.496                0.796401665      41.6973645
9.497                0.796913229      41.5732729
9.498                0.797422597      41.4495746
9.499                0.797929778      41.3262676
9.5                   0.79843478      41.2033497
9.501                0.798937615       41.080819
9.502                0.799438289      40.9586732
9.503                0.799936814      40.8369104
9.504                0.800433198      40.7155286
9.505                0.800927451      40.5945257
9.506                0.801419581      40.4738997
9.507                0.801909597      40.3536487
9.508                0.802397509      40.2337705
9.509                0.802883327      40.1142634
9.51                 0.803367058      39.9951252
9.511                0.803848712       39.876354
9.512                0.804328298       39.757948
9.513                0.804805825      39.6399051
9.514                0.805281302      39.5222235
9.515                0.805754737      39.4049013
9.516                 0.80622614      39.2879365
9.517                 0.80669552      39.1713273
9.518                0.807162885      39.0550719
9.519                0.807628244      38.9391683
9.52                 0.808091605      38.8236147
9.521                0.808552979      38.7084093
9.522                0.809012372      38.5935502
9.523                0.809469795      38.4790358
9.524                0.809925255       38.364864
9.525                0.810378761      38.2510332
9.526                0.810830321      38.1375416
9.527                0.811279946      38.0243873
9.528                0.811727641      37.9115687
9.529                0.812173417       37.799084
9.53                 0.812617282      37.6869315
9.531                0.813059244      37.5751093
9.532                0.813499311      37.4636159
9.533                0.813937492      37.3524495
9.534                0.814373796      37.2416084
9.535                0.814808229      37.1310908
9.536                0.815240802      37.0208953
9.537                0.815671521      36.9110199
9.538                0.816100395      36.8014632
9.539                0.816527433      36.6922235
9.54                 0.816952642       36.583299
9.541                 0.81737603      36.4746883
9.542                0.817797606      36.3663896
9.543                0.818217377      36.2584013
9.544                0.818635352       36.150722
9.545                0.819051538      36.0433499
9.546                0.819465944      35.9362835
9.547                0.819878577      35.8295211
9.548                0.820289446      35.7230614
9.549                0.820698557      35.6169026
9.55                 0.821105919      35.5110433
9.551                 0.82151154      35.4054819
9.552                0.821915427      35.3002168
9.553                0.822317588      35.1952466
9.554                0.822718031      35.0905698
9.555                0.823116763      34.9861848
9.556                0.823513792      34.8820902
9.557                0.823909126      34.7782844
9.558                0.824302771       34.674766
9.559                0.824694736      34.5715336
9.56                 0.825085028      34.4685856
9.561                0.825473655      34.3659206
9.562                0.825860623      34.2635372
9.563                0.826245941      34.1614339
9.564                0.826629615      34.0596094
9.565                0.827011653      33.9580621
9.566                0.827392062      33.8567907
9.567                 0.82777085      33.7557938
9.568                0.828148023        33.65507
9.569                 0.82852359      33.5546178
9.57                 0.828897556       33.454436
9.571                0.829269929      33.3545231
9.572                0.829640716      33.2548778
9.573                0.830009925      33.1554987
9.574                0.830377562      33.0563845
9.575                0.830743634      32.9575339
9.576                0.831108148      32.8589454
9.577                0.831471112      32.7606178
9.578                0.831832531      32.6625498
9.579                0.832192413        32.56474
9.58                 0.832550765      32.4671871
9.581                0.832907594      32.3698899
9.582                0.833262906      32.2728471
9.583                0.833616707      32.1760573
9.584                0.833969006      32.0795193
9.585                0.834319808      31.9832319
9.586                 0.83466912      31.8871937
9.587                0.835016949      31.7914035
9.588                  0.8353633      31.6958601
9.589                0.835708182      31.6005622
9.59                   0.8360516      31.5055086
9.591                0.836393561      31.4106981
9.592                0.836734071      31.3161294
9.593                0.837073136      31.2218013
9.594                0.837410764      31.1277127
9.595                 0.83774696      31.0338622
9.596                0.838081731      30.9402488
9.597                0.838415083      30.8468712
9.598                0.838747023      30.7537283
9.599                0.839077555      30.6608189
9.6                  0.839406688      30.5681418
9.601                0.839734427      30.4756958