! TOUCHSTONE file generated by CST DESIGN STUDIO
! Date and time: Wed Feb  5 13:47:37 2025
! Project name: C:\Work\MatlabApps\UnitCellOptimizationMatlab\CST\unitcell.cst
! Tree item: Tasks\Sweep1\SPara1\S-Parameters
! Header version: 2024
! Port assignment regex: !\s*Touchstone port\s*([0-9]+)\s*=\s*(CST MWS port|CST DES external port|CST DES block port)\s*(.+)\s* \(\"(.*)\"\)(\s*mode\s*([0-9]+))?.*
! Touchstone port assignment:
! Touchstone port 1 = CST DES external port 1 ("")
# GHz S MA R 50
9                    0.453565722      156.391226
9.001                0.453777323      155.776744
9.002                0.454007364      155.163103
9.003                0.454255758       154.55035
9.004                0.454522415      153.938529
9.005                0.454807242      153.327684
9.006                0.455110139       152.71786
9.007                0.455431003        152.1091
9.008                0.455769728      151.501446
9.009                0.456126202      150.894941
9.01                 0.456500312      150.289626
9.011                0.456891937      149.685543
9.012                0.457300957       149.08273
9.013                0.457727244      148.481228
9.014                0.458170669      147.881077
9.015                0.458631099      147.282313
9.016                0.459108397      146.684975
9.017                0.459602424      146.089099
9.018                0.460113037      145.494722
9.019                 0.46064009      144.901879
9.02                 0.461183433      144.310604
9.021                0.461742916      143.720932
9.022                0.462318382      143.132895
9.023                0.462909676      142.546526
9.024                0.463516636      141.961857
9.025                0.464139101      141.378917
9.026                0.464776906      140.797738
9.027                0.465429884      140.218348
9.028                0.466097866      139.640775
9.029                 0.46678068      139.065048
9.03                 0.467478153      138.491193
9.031                 0.46819011      137.919235
9.032                0.468916375      137.349201
9.033                0.469656769      136.781114
9.034                0.470411112      136.214998
9.035                0.471179222      135.650876
9.036                0.471960917       135.08877
9.037                0.472756013      134.528701
9.038                0.473564325      133.970689
9.039                0.474385665      133.414755
9.04                 0.475219848      132.860916
9.041                0.476066685      132.309191
9.042                0.476925987      131.759598
9.043                0.477797564      131.212152
9.044                0.478681227       130.66687
9.045                0.479576785      130.123766
9.046                0.480484046      129.582855
9.047                 0.48140282      129.044151
9.048                0.482332914      128.507667
9.049                0.483274137      127.973414
9.05                 0.484226298      127.441404
9.051                0.485189203      126.911648
9.052                0.486162661      126.384156
9.053                0.487146481      125.858937
9.054                0.488140471         125.336
9.055                0.489144439      124.815354
9.056                0.490158196      124.297006
9.057                0.491181549      123.780962
9.058                0.492214311       123.26723
9.059                 0.49325629      122.755814
9.06                 0.494307298       122.24672
9.061                0.495367148      121.739952
9.062                0.496435651      121.235514
9.063                0.497512622       120.73341
9.064                0.498597873      120.233642
9.065                0.499691222      119.736214
9.066                0.500792482      119.241126
9.067                0.501901473       118.74838
9.068                0.503018011      118.257977
9.069                0.504141915      117.769917
9.07                 0.505273007        117.2842
9.071                0.506411108      116.800825
9.072                 0.50755604      116.319793
9.073                0.508707627        115.8411
9.074                0.509865694      115.364745
9.075                0.511030069      114.890727
9.076                0.512200578      114.419042
9.077                0.513377052      113.949687
9.078                 0.51455932       113.48266
9.079                0.515747215      113.017955
9.08                 0.516940571       112.55557
9.081                0.518139223      112.095499
9.082                0.519343006      111.637738
9.083                 0.52055176      111.182282
9.084                0.521765324      110.729125
9.085                0.522983539      110.278263
9.086                0.524206249      109.829688
9.087                0.525433297      109.383395
9.088                 0.52666453      108.939376
9.089                0.527899796      108.497627
9.09                 0.529138943      108.058138
9.091                0.530381824      107.620904
9.092                 0.53162829      107.185917
9.093                0.532878197      106.753168
9.094                0.534131401      106.322651
9.095                0.535387758      105.894357
9.096                 0.53664713      105.468277
9.097                0.537909377      105.044404
9.098                0.539174362      104.622729
9.099                0.540441951      104.203243
9.1                  0.541712008      103.785937
9.101                0.542984404      103.370801
9.102                0.544259007      102.957828
9.103                 0.54553569      102.547007
9.104                0.546814326      102.138328
9.105                0.548094789      101.731783
9.106                0.549376958      101.327362
9.107                 0.55066071      100.925054
9.108                0.551945925       100.52485
9.109                0.553232487      100.126739
9.11                 0.554520278      99.7307117
9.111                0.555809184      99.3367578
9.112                0.557099092      98.9448668
9.113                0.558389892      98.5550284
9.114                0.559681473      98.1672321
9.115                0.560973728      97.7814674
9.116                0.562266551      97.3977238
9.117                0.563559837      97.0159906
9.118                0.564853483      96.6362572
9.119                0.566147389      96.2585128
9.12                 0.567441455      95.8827466
9.121                0.568735583       95.508948
9.122                0.570029677       95.137106
9.123                0.571323642      94.7672097
9.124                0.572617385      94.3992485
9.125                0.573910815      94.0332112
9.126                0.575203841       93.669087
9.127                0.576496376      93.3068651
9.128                0.577788332      92.9465344
9.129                0.579079625      92.5880839
9.13                  0.58037017      92.2315029
9.131                0.581659885      91.8767802
9.132                0.582948691      91.5239051
9.133                0.584236506      91.1728664
9.134                0.585523254      90.8236533
9.135                0.586808858      90.4762549
9.136                0.588093243      90.1306603
9.137                0.589376336      89.7868585
9.138                0.590658064      89.4448387
9.139                0.591938358      89.1045901
9.14                 0.593217147      88.7661018
9.141                0.594494364      88.4293629
9.142                0.595769941      88.0943628
9.143                0.597043815      87.7610906
9.144                0.598315921      87.4295357
9.145                0.599586196      87.0996873
9.146                0.600854579      86.7715347
9.147                 0.60212101      86.4450674
9.148                0.603385431      86.1202748
9.149                0.604647783      85.7971462
9.15                  0.60590801      85.4756712
9.151                0.607166058      85.1558393
9.152                0.608421872      84.8376401
9.153                  0.6096754      84.5210631
9.154                 0.61092659      84.2060981
9.155                0.612175392      83.8927347
9.156                0.613421757      83.5809626
9.157                0.614665636      83.2707717
9.158                0.615906983      82.9621518
9.159                0.617145752      82.6550927
9.16                 0.618381898      82.3495844
9.161                0.619615377      82.0456168
9.162                0.620846147      81.7431801
9.163                0.622074166      81.4422642
9.164                0.623299394      81.1428593
9.165                0.624521791      80.8449557
9.166                0.625741319      80.5485434
9.167                0.626957939      80.2536129
9.168                0.628171616      79.9601544
9.169                0.629382313      79.6681584
9.17                 0.630589997      79.3776154
9.171                0.631794633      79.0885157
9.172                0.632996188        78.80085
9.173                0.634194631       78.514609
9.174                 0.63538993      78.2297831
9.175                0.636582056      77.9463633
9.176                0.637770979      77.6643403
9.177                0.638956671      77.3837049
9.178                0.640139103      77.1044481
9.179                 0.64131825      76.8265607
9.18                 0.642494085      76.5500338
9.181                0.643666583      76.2748584
9.182                 0.64483572      76.0010257
9.183                0.646001472      75.7285269
9.184                0.647163816      75.4573532
9.185                 0.64832273      75.1874958
9.186                0.649478194      74.9189462
9.187                0.650630185      74.6516958
9.188                0.651778685      74.3857359
9.189                0.652923673      74.1210582
9.19                 0.654065133      73.8576542
9.191                0.655203045      73.5955155
9.192                0.656337393      73.3346339
9.193                0.657468159      73.0750011
9.194                0.658595329      72.8166088
9.195                0.659718887       72.559449
9.196                0.660838818      72.3035135
9.197                0.661955108      72.0487944
9.198                0.663067744      71.7952836
9.199                0.664176714      71.5429732
9.2                  0.665282004      71.2918555
9.201                0.666383604      71.0419225
9.202                0.667481502      70.7931665
9.203                0.668575687      70.5455798
9.204                 0.66966615      70.2991547
9.205                0.670752881      70.0538838
9.206                0.671835872      69.8097594
9.207                0.672915113       69.566774
9.208                0.673990597      69.3249203
9.209                0.675062317      69.0841908
9.21                 0.676130265      68.8445783
9.211                0.677194435      68.6060754
9.212                0.678254821      68.3686749
9.213                0.679311418      68.1323697
9.214                 0.68036422      67.8971526
9.215                0.681413223      67.6630167
9.216                0.682458423      67.4299548
9.217                0.683499815        67.19796
9.218                0.684537397      66.9670254
9.219                0.685571164      66.7371441
9.22                 0.686601116      66.5083094
9.221                 0.68762725      66.2805144
9.222                0.688649563      66.0537525
9.223                0.689668054       65.828017
9.224                0.690682723      65.6033012
9.225                0.691693569      65.3795987
9.226                0.692700591      65.1569028
9.227                0.693703789      64.9352072
9.228                0.694703164      64.7145053
9.229                0.695698716      64.4947909
9.23                 0.696690447      64.2760576
9.231                0.697678357       64.058299
9.232                0.698662449       63.841509
9.233                0.699642724      63.6256814
9.234                0.700619184      63.4108101
9.235                0.701591832      63.1968888
9.236                0.702560672      62.9839117
9.237                0.703525705      62.7718726
9.238                0.704486936      62.5607656
9.239                0.705444367      62.3505847
9.24                 0.706398003      62.1413242
9.241                0.707347849      61.9329781
9.242                0.708293908      61.7255408
9.243                0.709236185      61.5190063
9.244                0.710174685       61.313369
9.245                0.711109413      61.1086233
9.246                0.712040374      60.9047635
9.247                0.712967575       60.701784
9.248                 0.71389102      60.4996794
9.249                0.714810716       60.298444
9.25                 0.715726669      60.0980725
9.251                0.716638886      59.8985594
9.252                0.717547373      59.6998993
9.253                0.718452136       59.502087
9.254                0.719353184       59.305117
9.255                0.720250522      59.1089841
9.256                0.721144159      58.9136832
9.257                0.722034102       58.719209
9.258                0.722920358      58.5255563
9.259                0.723802935      58.3327202
9.26                 0.724681843      58.1406954
9.261                0.725557087       57.949477
9.262                0.726428678      57.7590599
9.263                0.727296623      57.5694392
9.264                0.728160932      57.3806101
9.265                0.729021612      57.1925674
9.266                0.729878673      57.0053066
9.267                0.730732123      56.8188226
9.268                0.731581973      56.6331108
9.269                 0.73242823      56.4481663
9.27                 0.733270906      56.2639845
9.271                0.734110008      56.0805607
9.272                0.734945547      55.8978902
9.273                0.735777533      55.7159685
9.274                0.736605975      55.5347909
9.275                0.737430883      55.3543529
9.276                0.738252268        55.17465
9.277                0.739070139      54.9956777
9.278                0.739884507      54.8174315
9.279                0.740695382      54.6399071
9.28                 0.741502774      54.4631001
9.281                0.742306695      54.2870061
9.282                0.743107154      54.1116208
9.283                0.743904163      53.9369399
9.284                0.744697732      53.7629591
9.285                0.745487871      53.5896743
9.286                0.746274593      53.4170812
9.287                0.747057907      53.2451756
9.288                0.747837826      53.0739534
9.289                0.748614359      52.9034106
9.29                 0.749387518       52.733543
9.291                0.750157315      52.5643465
9.292                 0.75092376      52.3958172
9.293                0.751686865      52.2279511
9.294                0.752446642      52.0607442
9.295                0.753203101      51.8941926
9.296                0.753956255      51.7282923
9.297                0.754706114      51.5630395
9.298                0.755452691      51.3984303
9.299                0.756195996      51.2344609
9.3                  0.756936043      51.0711276
9.301                0.757672841      50.9084264
9.302                0.758406404      50.7463538
9.303                0.759136742      50.5849059
9.304                0.759863868      50.4240792
9.305                0.760587794      50.2638698
9.306                 0.76130853      50.1042742
9.307                 0.76202609      49.9452888
9.308                0.762740484      49.7869099
9.309                0.763451726      49.6291341
9.31                 0.764159826      49.4719577
9.311                0.764864797      49.3153773
9.312                0.765566651      49.1593894
9.313                0.766265399      49.0039904
9.314                0.766961055       48.849177
9.315                0.767653628      48.6949458
9.316                0.768343133      48.5412933
9.317                0.769029581      48.3882162
9.318                0.769712983      48.2357111
9.319                0.770393352      48.0837748
9.32                   0.7710707      47.9324038
9.321                0.771745039       47.781595
9.322                0.772416381       47.631345
9.323                0.773084738      47.4816507
9.324                0.773750123      47.3325088
9.325                0.774412546      47.1839162
9.326                0.775072021      47.0358697
9.327                0.775728559       46.888366
9.328                0.776382172      46.7414022
9.329                0.777032873      46.5949752
9.33                 0.777680674      46.4490817
9.331                0.778325585      46.3037188
9.332                0.778967621      46.1588834
9.333                0.779606791      46.0145726
9.334                 0.78024311      45.8707832
9.335                0.780876587      45.7275124
9.336                0.781507237      45.5847572
9.337                0.782135069      45.4425147
9.338                0.782760097      45.3007818
9.339                0.783382333      45.1595558
9.34                 0.784001787      45.0188337
9.341                0.784618473      44.8786128
9.342                0.785232401        44.73889
9.343                0.785843585      44.5996628
9.344                0.786452035      44.4609281
9.345                0.787057764      44.3226833
9.346                0.787660783      44.1849256
9.347                0.788261104      44.0476522
9.348                0.788858739      43.9108605
9.349                  0.7894537      43.7745476
9.35                 0.790045998       43.638711
9.351                0.790635645      43.5033479
9.352                0.791222652      43.3684557
9.353                0.791807032      43.2340318
9.354                0.792388796      43.1000734
9.355                0.792967955      42.9665781
9.356                0.793544521      42.8335433
9.357                0.794118506      42.7009663
9.358                0.794689921      42.5688447
9.359                0.795258778      42.4371758
9.36                 0.795825087      42.3059572
9.361                0.796388861      42.1751864
9.362                0.796950111      42.0448608
9.363                0.797508847      41.9149781
9.364                0.798065083      41.7855358
9.365                0.798618827      41.6565313
9.366                0.799170093      41.5279624
9.367                0.799718892      41.3998266
9.368                0.800265233      41.2721215
9.369                0.800809129      41.1448447
9.37                 0.801350591      41.0179939
9.371                 0.80188963      40.8915668
9.372                0.802426256      40.7655609
9.373                0.802960481      40.6399741
9.374                0.803492316      40.5148039
9.375                0.804021772      40.3900482
9.376                 0.80454886      40.2657046
9.377                 0.80507359       40.141771
9.378                0.805595973      40.0182449
9.379                0.806116021      39.8951243
9.38                 0.806633744       39.772407
9.381                0.807149152      39.6500906
9.382                0.807662257      39.5281731
9.383                0.808173069      39.4066523
9.384                0.808681599       39.285526
9.385                0.809187857      39.1647921
9.386                0.809691854      39.0444484
9.387                  0.8101936      38.9244929
9.388                0.810693106      38.8049234
9.389                0.811190382      38.6857379
9.39                 0.811685439      38.5669342
9.391                0.812178287      38.4485103
9.392                0.812668936      38.3304643
9.393                0.813157397      38.2127939
9.394                0.813643679      38.0954973
9.395                0.814127793      37.9785724
9.396                 0.81460975      37.8620172
9.397                0.815089559      37.7458297
9.398                 0.81556723      37.6300079
9.399                0.816042773        37.51455
9.4                  0.816516199      37.3994539
9.401                0.816987517      37.2847177
9.402                0.817456738      37.1703395
9.403                 0.81792387      37.0563174
9.404                0.818388925      36.9426494
9.405                0.818851911      36.8293338
9.406                0.819312839      36.7163685
9.407                0.819771717      36.6037518
9.408                0.820228557      36.4914818
9.409                0.820683367      36.3795567
9.41                 0.821136158      36.2679746
9.411                0.821586938      36.1567336
9.412                0.822035717      36.0458321
9.413                0.822482504      35.9352682
9.414                 0.82292731      35.8250402
9.415                0.823370143      35.7151461
9.416                0.823811013      35.6055844
9.417                0.824249929      35.4963531
9.418                0.824686901      35.3874507
9.419                0.825121937      35.2788753
9.42                 0.825555046      35.1706253
9.421                0.825986239      35.0626988
9.422                0.826415524      34.9550943
9.423                0.826842909      34.8478101
9.424                0.827268405      34.7408443
9.425                 0.82769202      34.6341955
9.426                0.828113762      34.5278619
9.427                0.828533642      34.4218419
9.428                0.828951667      34.3161338
9.429                0.829367847       34.210736
9.43                  0.82978219      34.1056469
9.431                0.830194705      34.0008649
9.432                0.830605401      33.8963883
9.433                0.831014287      33.7922157
9.434                 0.83142137      33.6883453
9.435                 0.83182666      33.5847757
9.436                0.832230165      33.4815052
9.437                0.832631894      33.3785323
9.438                0.833031855      33.2758556
9.439                0.833430057      33.1734733
9.44                 0.833826507      33.0713841
9.441                0.834221214      32.9695864
9.442                0.834614187      32.8680786
9.443                0.835005434      32.7668593
9.444                0.835394962       32.665927
9.445                0.835782781      32.5652803
9.446                0.836168898      32.4649176
9.447                0.836553321      32.3648374
9.448                0.836936059      32.2650384
9.449                0.837317119       32.165519
9.45                  0.83769651      32.0662779
9.451                0.838074239      31.9673135
9.452                0.838450314      31.8686246
9.453                0.838824744      31.7702096
9.454                0.839197535      31.6720672
9.455                0.839568696      31.5741959
9.456                0.839938235      31.4765945
9.457                0.840306158      31.3792614
9.458                0.840672475      31.2821953
9.459                0.841037192      31.1853949
9.46                 0.841400317      31.0888587
9.461                0.841761858      30.9925856
9.462                0.842121822       30.896574
9.463                0.842480216      30.8008227
9.464                0.842837049      30.7053303
9.465                0.843192327      30.6100955
9.466                0.843546058      30.5151171
9.467                0.843898249      30.4203937
9.468                0.844248908      30.3259239
9.469                0.844598041      30.2317066
9.47                 0.844945656      30.1377405
9.471                0.845291761      30.0440241
9.472                0.845636362      29.9505564
9.473                0.845979466       29.857336
9.474                 0.84632108      29.7643617
9.475                0.846661213      29.6716322
9.476                0.846999869      29.5791464
9.477                0.847337057      29.4869028
9.478                0.847672784      29.3949005
9.479                0.848007056       29.303138
9.48                  0.84833988      29.2116142
9.481                0.848671263      29.1203279
9.482                0.849001212       29.029278
9.483                0.849329733      28.9384631
9.484                0.849656833      28.8478822
9.485                 0.84998252       28.757534
9.486                0.850306799      28.6674173
9.487                0.850629677      28.5775311
9.488                0.850951162      28.4878742
9.489                0.851271258      28.3984453
9.49                 0.851589973      28.3092433
9.491                0.851907314      28.2202672
9.492                0.852223286      28.1315158
9.493                0.852537897      28.0429878
9.494                0.852851152      27.9546824
9.495                0.853163058      27.8665982
9.496                0.853473621      27.7787342
9.497                0.853782848      27.6910893
9.498                0.854090745      27.6036624
9.499                0.854397317      27.5164525
9.5                  0.854702572      27.4294583
9.501                0.855006514      27.3426789
9.502                0.855309152      27.2561131
9.503                0.855610489        27.16976
9.504                0.855910533      27.0836184
9.505                 0.85620929      26.9976872
9.506                0.856506765      26.9119655
9.507                0.856802965      26.8264522
9.508                0.857097895      26.7411462
9.509                0.857391562      26.6560465
9.51                  0.85768397      26.5711522
9.511                0.857975127       26.486462
9.512                0.858265037      26.4019751
9.513                0.858553707      26.3176905
9.514                0.858841142      26.2336071
9.515                0.859127348      26.1497238
9.516                0.859412331      26.0660398
9.517                0.859696096      25.9825541
9.518                0.859978649      25.8992656
9.519                0.860259995      25.8161733
9.52                 0.860540141      25.7332764
9.521                0.860819091      25.6505738
9.522                0.861096851      25.5680645
9.523                0.861373427      25.4857476
9.524                0.861648823      25.4036222
9.525                0.861923046      25.3216872
9.526                0.862196101      25.2399418
9.527                0.862467993       25.158385
9.528                0.862738727      25.0770159
9.529                0.863008309      24.9958335
9.53                 0.863276744      24.9148369
9.531                0.863544037      24.8340252
9.532                0.863810194      24.7533975
9.533                0.864075219      24.6729528
9.534                0.864339118      24.5926903
9.535                0.864601895      24.5126091
9.536                0.864863557      24.4327082
9.537                0.865124108      24.3529868
9.538                0.865383552      24.2734439
9.539                0.865641896      24.1940788
9.54                 0.865899144      24.1148904
9.541                0.866155301       24.035878
9.542                0.866410372      23.9570407
9.543                0.866664362      23.8783775
9.544                0.866917275      23.7998877
9.545                0.867169117      23.7215704
9.546                0.867419892      23.6434247
9.547                0.867669606      23.5654498
9.548                0.867918262      23.4876448
9.549                0.868165867      23.4100089
9.55                 0.868412423      23.3325413
9.551                0.868657937      23.2552411
9.552                0.868902413      23.1781075
9.553                0.869145855      23.1011396
9.554                0.869388268      23.0243367
9.555                0.869629657       22.947698
9.556                0.869870026      22.8712226
9.557                 0.87010938      22.7949097
9.558                0.870347723      22.7187585
9.559                0.870585059      22.6427682
9.56                 0.870821394      22.5669381
9.561                0.871056732      22.4912672
9.562                0.871291077      22.4157549
9.563                0.871524433      22.3404004
9.564                0.871756806      22.2652029
9.565                0.871988198      22.1901615
9.566                0.872218615      22.1152756
9.567                0.872448061      22.0405443
9.568                 0.87267654      21.9659669
9.569                0.872904056      21.8915427
9.57                 0.873130614      21.8172708
9.571                0.873356218      21.7431506
9.572                0.873580872      21.6691812
9.573                0.873804579      21.5953619
9.574                0.874027346       21.521692
9.575                0.874249174      21.4481708
9.576                0.874470069      21.3747975
9.577                0.874690035      21.3015713
9.578                0.874909075      21.2284915
9.579                0.875127194      21.1555575
9.58                 0.875344396      21.0827685
9.581                0.875560684      21.0101237
9.582                0.875776063      20.9376225
9.583                0.875990536      20.8652641
9.584                0.876204108      20.7930479
9.585                0.876416782      20.7209731
9.586                0.876628563      20.6490391
9.587                0.876839453       20.577245
9.588                0.877049457      20.5055903
9.589                0.877258579      20.4340742
9.59                 0.877466823      20.3626961
9.591                0.877674192      20.2914553
9.592                 0.87788069       20.220351
9.593                 0.87808632      20.1493826
9.594                0.878291087      20.0785495
9.595                0.878494994      20.0078509
9.596                0.878698045      19.9372861
9.597                0.878900243      19.8668546
9.598                0.879101593      19.7965557
9.599                0.879302097      19.7263886
9.6                  0.879501759      19.6563528
9.601                0.879700583      19.5864475