! TOUCHSTONE file generated by CST DESIGN STUDIO
! Date and time: Wed Feb  5 13:47:35 2025
! Project name: C:\Work\MatlabApps\UnitCellOptimizationMatlab\CST\unitcell.cst
! Tree item: Tasks\Sweep1\SPara1\S-Parameters
! Header version: 2024
! Port assignment regex: !\s*Touchstone port\s*([0-9]+)\s*=\s*(CST MWS port|CST DES external port|CST DES block port)\s*(.+)\s* \(\"(.*)\"\)(\s*mode\s*([0-9]+))?.*
! Touchstone port assignment:
! Touchstone port 1 = CST DES external port 1 ("")
# GHz S MA R 50
9                     0.54892113      101.055702
9.001                0.550291441      100.638742
9.002                0.551663171      100.224066
9.003                0.553036185      99.8116619
9.004                0.554410353      99.4015169
9.005                0.555785545      98.9936196
9.006                0.557161636      98.5879579
9.007                0.558538499      98.1845197
9.008                0.559916012      97.7832928
9.009                0.561294054      97.3842652
9.01                 0.562672506      96.9874244
9.011                0.564051251      96.5927581
9.012                0.565430173       96.200254
9.013                0.566809161      95.8098997
9.014                0.568188101      95.4216827
9.015                0.569566886      95.0355905
9.016                0.570945409      94.6516106
9.017                0.572323562      94.2697306
9.018                0.573701244      93.8899378
9.019                0.575078352      93.5122197
9.02                 0.576454786      93.1365638
9.021                0.577830449      92.7629574
9.022                0.579205244      92.3913881
9.023                0.580579077      92.0218433
9.024                0.581951855      91.6543103
9.025                0.583323487      91.2887767
9.026                0.584693885        90.92523
9.027                0.586062961      90.5636575
9.028                 0.58743063      90.2040469
9.029                0.588796807      89.8463856
9.03                  0.59016141      89.4906613
9.031                0.591524358      89.1368614
9.032                0.592885574      88.7849737
9.033                0.594244978      88.4349856
9.034                0.595602497      88.0868851
9.035                0.596958055      87.7406596
9.036                 0.59831158      87.3962971
9.037                0.599663001      87.0537853
9.038                0.601012249      86.7131121
9.039                0.602359255      86.3742652
9.04                 0.603703954      86.0372328
9.041                 0.60504628      85.7020027
9.042                 0.60638617      85.3685629
9.043                0.607723562      85.0369017
9.044                0.609058395      84.7070071
9.045                 0.61039061      84.3788672
9.046                0.611720149      84.0524704
9.047                0.613046957       83.727805
9.048                0.614370977      83.4048592
9.049                0.615692156      83.0836216
9.05                 0.617010441      82.7640806
9.051                0.618325782      82.4462247
9.052                0.619638128      82.1300426
9.053                0.620947432      81.8155228
9.054                0.622253645      81.5026542
9.055                0.623556722      81.1914255
9.056                0.624856617      80.8818256
9.057                0.626153287      80.5738434
9.058                0.627446689      80.2674678
9.059                0.628736783      79.9626879
9.06                 0.630023527      79.6594929
9.061                0.631306882      79.3578719
9.062                0.632586812      79.0578141
9.063                0.633863278      78.7593089
9.064                0.635136244      78.4623457
9.065                0.636405677      78.1669138
9.066                0.637671542      77.8730029
9.067                0.638933806      77.5806025
9.068                0.640192438      77.2897022
9.069                0.641447407      77.0002919
9.07                 0.642698683      76.7123611
9.071                0.643946238         76.4259
9.072                0.645190043      76.1408982
9.073                0.646430071       75.857346
9.074                0.647666298      75.5752332
9.075                0.648898696      75.2945501
9.076                0.650127243      75.0152869
9.077                0.651351915      74.7374338
9.078                0.652572689      74.4609811
9.079                0.653789543      74.1859193
9.08                 0.655002457      73.9122389
9.081                0.656211411      73.6399303
9.082                0.657416385      73.3689843
9.083                 0.65861736      73.0993914
9.084                 0.65981432      72.8311425
9.085                0.661007248      72.5642282
9.086                0.662196126      72.2986396
9.087                0.663380939      72.0343676
9.088                0.664561674      71.7714031
9.089                0.665738315      71.5097373
9.09                 0.666910849      71.2493613
9.091                0.668079263      70.9902662
9.092                0.669243546      70.7324435
9.093                0.670403686      70.4758844
9.094                0.671559672      70.2205802
9.095                0.672711495      69.9665226
9.096                0.673859144       69.713703
9.097                 0.67500261      69.4621131
9.098                0.676141886      69.2117444
9.099                0.677276964      68.9625887
9.1                  0.678407836      68.7146378
9.101                0.679534496      68.4678836
9.102                0.680656937      68.2223179
9.103                0.681775155      67.9779327
9.104                0.682889143      67.7347201
9.105                0.683998899      67.4926721
9.106                0.685104417      67.2517809
9.107                0.686205694      67.0120387
9.108                0.687302728      66.7734378
9.109                0.688395515      66.5359705
9.11                 0.689484053      66.2996292
9.111                0.690568342      66.0644064
9.112                0.691648379      65.8302945
9.113                0.692724164      65.5972862
9.114                0.693795697       65.365374
9.115                0.694862977      65.1345506
9.116                0.695926006      64.9048088
9.117                0.696984784      64.6761414
9.118                0.698039313      64.4485411
9.119                0.699089593      64.2220009
9.12                 0.700135628      63.9965138
9.121                 0.70117742      63.7720728
9.122                0.702214971      63.5486709
9.123                0.703248285      63.3263012
9.124                0.704277364       63.104957
9.125                0.705302214      62.8846314
9.126                0.706322837      62.6653178
9.127                 0.70733924      62.4470093
9.128                0.708351425      62.2296995
9.129                0.709359398      62.0133818
9.13                 0.710363166      61.7980496
9.131                0.711362733      61.5836965
9.132                0.712358104       61.370316
9.133                0.713349288      61.1579019
9.134                0.714336289      60.9464477
9.135                0.715319116      60.7359471
9.136                0.716297774      60.5263941
9.137                0.717272271      60.3177824
9.138                0.718242614      60.1101058
9.139                0.719208812      59.9033583
9.14                 0.720170872      59.6975339
9.141                0.721128803      59.4926265
9.142                0.722082613      59.2886303
9.143                0.723032309      59.0855393
9.144                0.723977903      58.8833477
9.145                0.724919402      58.6820496
9.146                0.725856815      58.4816394
9.147                0.726790152      58.2821113
9.148                0.727719424      58.0834596
9.149                0.728644638      57.8856787
9.15                 0.729565806       57.688763
9.151                0.730482938       57.492707
9.152                0.731396044      57.2975051
9.153                0.732305134       57.103152
9.154                 0.73321022      56.9096422
9.155                0.734111311      56.7169702
9.156                0.735008419      56.5251309
9.157                0.735901555      56.3341188
9.158                 0.73679073      56.1439287
9.159                0.737675955      55.9545555
9.16                 0.738557243      55.7659939
9.161                0.739434604      55.5782388
9.162                 0.74030805      55.3912851
9.163                0.741177594      55.2051277
9.164                0.742043246      55.0197616
9.165                 0.74290502      54.8351819
9.166                0.743762927      54.6513836
9.167                 0.74461698      54.4683618
9.168                0.745467191      54.2861116
9.169                0.746313573      54.1046282
9.17                 0.747156138      53.9239067
9.171                0.747994898      53.7439425
9.172                0.748829867      53.5647308
9.173                0.749661057      53.3862668
9.174                0.750488482       53.208546
9.175                0.751312154      53.0315638
9.176                0.752132086      52.8553154
9.177                0.752948292      52.6797965
9.178                0.753760784      52.5050024
9.179                0.754569576      52.3309287
9.18                 0.755374682      52.1575709
9.181                0.756176114      51.9849246
9.182                0.756973886      51.8129855
9.183                0.757768011      51.6417491
9.184                0.758558504      51.4712111
9.185                0.759345377      51.3013674
9.186                0.760128644      51.1322135
9.187                0.760908319      50.9637453
9.188                0.761684416      50.7959585
9.189                0.762456948      50.6288491
9.19                  0.76322593      50.4624128
9.191                0.763991374      50.2966456
9.192                0.764753295      50.1315435
9.193                0.765511706      49.9671022
9.194                0.766266623      49.8033179
9.195                0.767018057      49.6401866
9.196                0.767766024      49.4777042
9.197                0.768510538       49.315867
9.198                0.769251611      49.1546709
9.199                0.769989259      48.9941121
9.2                  0.770723495      48.8341867
9.201                0.771454334       48.674891
9.202                0.772181789      48.5162211
9.203                0.772905874      48.3581734
9.204                0.773626604       48.200744
9.205                0.774343993      48.0439292
9.206                0.775058054      47.8877255
9.207                0.775768801       47.732129
9.208                0.776476249      47.5771363
9.209                0.777180412      47.4227436
9.21                 0.777881304      47.2689475
9.211                0.778578938      47.1157444
9.212                 0.77927333      46.9631306
9.213                0.779964492      46.8111029
9.214                0.780652439      46.6596576
9.215                0.781337186      46.5087913
9.216                0.782018745      46.3585007
9.217                0.782697131      46.2087822
9.218                0.783372358      46.0596326
9.219                 0.78404444      45.9110484
9.22                  0.78471339      45.7630264
9.221                0.785379224      45.6155632
9.222                0.786041954      45.4686556
9.223                0.786701595      45.3223003
9.224                 0.78735816       45.176494
9.225                0.788011664      45.0312336
9.226                 0.78866212      44.8865158
9.227                0.789309541      44.7423376
9.228                0.789953943      44.5986956
9.229                0.790595338      44.4555869
9.23                  0.79123374      44.3130083
9.231                0.791869163      44.1709567
9.232                0.792501621      44.0294291
9.233                0.793131127      43.8884225
9.234                0.793757695      43.7479338
9.235                0.794381338      43.6079599
9.236                0.795002071      43.4684981
9.237                0.795619906      43.3295452
9.238                0.796234857      43.1910984
9.239                0.796846938      43.0531547
9.24                 0.797456161      42.9157113
9.241                0.798062541      42.7787653
9.242                0.798666091      42.6423137
9.243                0.799266824      42.5063539
9.244                0.799864753      42.3708829
9.245                0.800459891       42.235898
9.246                0.801052253      42.1013964
9.247                 0.80164185      41.9673754
9.248                0.802228697      41.8338321
9.249                0.802812805      41.7007639
9.25                 0.803394189      41.5681681
9.251                0.803972861       41.436042
9.252                0.804548834      41.3043829
9.253                0.805122122      41.1731882
9.254                0.805692736      41.0424552
9.255                0.806260691      40.9121814
9.256                0.806825998      40.7823641
9.257                0.807388671      40.6530008
9.258                0.807948721      40.5240889
9.259                0.808506163      40.3956258
9.26                 0.809061008      40.2676091
9.261                0.809613269      40.1400361
9.262                0.810162959      40.0129046
9.263                 0.81071009      39.8862119
9.264                0.811254675      39.7599556
9.265                0.811796725      39.6341332
9.266                0.812336254      39.5087424
9.267                0.812873274      39.3837807
9.268                0.813407796      39.2592457
9.269                0.813939834      39.1351351
9.27                 0.814469399      39.0114464
9.271                0.814996504      38.8881774
9.272                 0.81552116      38.7653257
9.273                 0.81604338       38.642889
9.274                0.816563175       38.520865
9.275                0.817080558      38.3992514
9.276                 0.81759554      38.2780459
9.277                0.818108133      38.1572464
9.278                 0.81861835      38.0368504
9.279                0.819126201      37.9168559
9.28                 0.819631699      37.7972605
9.281                0.820134855      37.6780622
9.282                0.820635681      37.5592587
9.283                0.821134188      37.4408478
9.284                0.821630388      37.3228274
9.285                0.822124293      37.2051954
9.286                0.822615913      37.0879496
9.287                0.823105259      36.9710879
9.288                0.823592345      36.8546082
9.289                 0.82407718      36.7385085
9.29                 0.824559775      36.6227866
9.291                0.825040143      36.5074405
9.292                0.825518294      36.3924681
9.293                0.825994239      36.2778675
9.294                0.826467989      36.1636366
9.295                0.826939555      36.0497733
9.296                0.827408949      35.9362758
9.297                 0.82787618      35.8231419
9.298                 0.82834126      35.7103699
9.299                0.828804199      35.5979576
9.3                  0.829265009      35.4859031
9.301                0.829723699      35.3742045
9.302                0.830180281        35.26286
9.303                0.830634765      35.1518675
9.304                0.831087161      35.0412252
9.305                0.831537481      34.9309313
9.306                0.831985734      34.8209837
9.307                 0.83243193      34.7113808
9.308                0.832876081      34.6021206
9.309                0.833318196      34.4932012
9.31                 0.833758286       34.384621
9.311                0.834196361      34.2763779
9.312                 0.83463243      34.1684704
9.313                0.835066505      34.0608965
9.314                0.835498594      33.9536545
9.315                0.835928709      33.8467425
9.316                0.836356858       33.740159
9.317                0.836783053      33.6339021
9.318                0.837207301        33.52797
9.319                0.837629615      33.4223611
9.32                 0.838050002      33.3170736
9.321                0.838468473      33.2121058
9.322                0.838885038      33.1074561
9.323                0.839299705      33.0031228
9.324                0.839712486      32.8991041
9.325                0.840123388      32.7953984
9.326                0.840532422      32.6920041
9.327                0.840939596      32.5889196
9.328                0.841344921      32.4861431
9.329                0.841748406      32.3836731
9.33                 0.842150059      32.2815079
9.331                0.842549891      32.1796461
9.332                 0.84294791      32.0780858
9.333                0.843344124      31.9768257
9.334                0.843738545      31.8758641
9.335                 0.84413118      31.7751994
9.336                0.844522038      31.6748301
9.337                0.844911128      31.5747547
9.338                 0.84529846      31.4749716
9.339                0.845684041      31.3754792
9.34                 0.846067882      31.2762761
9.341                 0.84644999      31.1773608
9.342                0.846830374      31.0787318
9.343                0.847209043      30.9803875
9.344                0.847586006      30.8823265
9.345                0.847961271      30.7845473
9.346                0.848334846      30.6870485
9.347                0.848706741      30.5898286
9.348                0.849076963      30.4928862
9.349                 0.84944552      30.3962197
9.35                 0.849812423      30.2998279
9.351                0.850177677      30.2037092
9.352                0.850541293      30.1078623
9.353                0.850903277      30.0122857
9.354                0.851263639      29.9169781
9.355                0.851622386      29.8219381
9.356                0.851979526      29.7271643
9.357                0.852335067      29.6326552
9.358                0.852689019      29.5384097
9.359                0.853041387      29.4444262
9.36                  0.85339218      29.3507035
9.361                0.853741407      29.2572402
9.362                0.854089075       29.164035
9.363                0.854435191      29.0710866
9.364                0.854779764      28.9783936
9.365                0.855122801      28.8859548
9.366                 0.85546431      28.7937688
9.367                0.855804298      28.7018343
9.368                0.856142773      28.6101501
9.369                0.856479743      28.5187149
9.37                 0.856815215      28.4275274
9.371                0.857149196      28.3365864
9.372                0.857481694      28.2458905
9.373                0.857812716      28.1554386
9.374                 0.85814227      28.0652294
9.375                0.858470362      27.9752617
9.376                0.858797001      27.8855342
9.377                0.859122193      27.7960457
9.378                0.859445946      27.7067951
9.379                0.859768266       27.617781
9.38                 0.860089161      27.5290024
9.381                0.860408638      27.4404579
9.382                0.860726703      27.3521465
9.383                0.861043364      27.2640669
9.384                0.861358628       27.176218
9.385                0.861672501      27.0885986
9.386                0.861984991      27.0012075
9.387                0.862296104      26.9140436
9.388                0.862605848      26.8271058
9.389                0.862914228      26.7403929
9.39                 0.863221251      26.6539037
9.391                0.863526925      26.5676372
9.392                0.863831255      26.4815922
9.393                0.864134249      26.3957676
9.394                0.864435913      26.3101623
9.395                0.864736253      26.2247753
9.396                0.865035277      26.1396053
9.397                0.865332989      26.0546513
9.398                0.865629398      25.9699123
9.399                0.865924509      25.8853871
9.4                  0.866218328      25.8010746
9.401                0.866510863      25.7169739
9.402                0.866802118      25.6330839
9.403                0.867092101      25.5494034
9.404                0.867380818      25.4659315
9.405                0.867668274      25.3826671
9.406                0.867954477      25.2996091
9.407                0.868239431      25.2167566
9.408                0.868523144      25.1341085
9.409                 0.86880562      25.0516638
9.41                 0.869086867      24.9694215
9.411                 0.86936689      24.8873805
9.412                0.869645695      24.8055399
9.413                0.869923288      24.7238986
9.414                0.870199675      24.6424557
9.415                0.870474861      24.5612102
9.416                0.870748853      24.4801611
9.417                0.871021656      24.3993074
9.418                0.871293276      24.3186482
9.419                0.871563719      24.2381824
9.42                  0.87183299      24.1579092
9.421                0.872101095      24.0778275
9.422                 0.87236804      23.9979365
9.423                0.872633829      23.9182351
9.424                 0.87289847      23.8387224
9.425                0.873161967      23.7593976
9.426                0.873424325      23.6802595
9.427                0.873685551      23.6013075
9.428                0.873945649      23.5225404
9.429                0.874204625      23.4439575
9.43                 0.874462485      23.3655577
9.431                0.874719233      23.2873402
9.432                0.874974875      23.2093041
9.433                0.875229417      23.1314484
9.434                0.875482863      23.0537724
9.435                0.875735219       22.976275
9.436                0.875986489      22.8989555
9.437                 0.87623668      22.8218129
9.438                0.876485796      22.7448464
9.439                0.876733842       22.668055
9.44                 0.876980823       22.591438
9.441                0.877226745      22.5149945
9.442                0.877471612      22.4387235
9.443                 0.87771543      22.3626244
9.444                0.877958202      22.2866961
9.445                0.878199936      22.2109379
9.446                0.878440634       22.135349
9.447                0.878680302      22.0599284
9.448                0.878918945      21.9846755
9.449                0.879156568      21.9095892
9.45                 0.879393175      21.8346689
9.451                0.879628771      21.7599137
9.452                0.879863362      21.6853228
9.453                0.880096951      21.6108953
9.454                0.880329543      21.5366306
9.455                0.880561144      21.4625277
9.456                0.880791757      21.3885859
9.457                0.881021387      21.3148044
9.458                0.881250039      21.2411824
9.459                0.881477717      21.1677191
9.46                 0.881704426      21.0944138
9.461                0.881930171      21.0212655
9.462                0.882154955      20.9482737
9.463                0.882378784      20.8754375
9.464                0.882601661      20.8027562
9.465                0.882823592      20.7302289
9.466                 0.88304458       20.657855
9.467                 0.88326463      20.5856336
9.468                0.883483745      20.5135641
9.469                0.883701932      20.4416457
9.47                 0.883919193      20.3698776
9.471                0.884135533       20.298259
9.472                0.884350956      20.2267894
9.473                0.884565467      20.1554679
9.474                0.884779069      20.0842938
9.475                0.884991767      20.0132664
9.476                0.885203565      19.9423849
9.477                0.885414467      19.8716487
9.478                0.885624476       19.801057
9.479                0.885833598      19.7306091
9.48                 0.886041836      19.6603043
9.481                0.886249195      19.5901419
9.482                0.886455677      19.5201213
9.483                0.886661288      19.4502416
9.484                 0.88686603      19.3805023
9.485                0.887069909      19.3109025
9.486                0.887272927      19.2414417
9.487                 0.88747509      19.1721192
9.488                  0.8876764      19.1029343
9.489                0.887876861      19.0338862
9.49                 0.888076478      18.9649744
9.491                0.888275253      18.8961981
9.492                0.888473192      18.8275567
9.493                0.888670297      18.7590495
9.494                0.888866573      18.6906759
9.495                0.889062022      18.6224351
9.496                 0.88925665      18.5543267
9.497                0.889450459      18.4863498
9.498                0.889643452      18.4185038
9.499                0.889835635      18.3507882
9.5                  0.890027009      18.2832022
9.501                 0.89021758      18.2157452
9.502                 0.89040735      18.1484166
9.503                0.890596323      18.0812158
9.504                0.890784502      18.0141421
9.505                0.890971892      17.9471948
9.506                0.891158495      17.8803735
9.507                0.891344315      17.8136773
9.508                0.891529355      17.7471058
9.509                0.891713619      17.6806583
9.51                  0.89189711      17.6143342
9.511                0.892079832      17.5481328
9.512                0.892261788      17.4820537
9.513                0.892442981      17.4160961
9.514                0.892623415      17.3502594
9.515                0.892803093      17.2845431
9.516                0.892982018      17.2189466
9.517                0.893160193      17.1534693
9.518                0.893337623      17.0881105
9.519                0.893514309      17.0228698
9.52                 0.893690255      16.9577464
9.521                0.893865465      16.8927399
9.522                0.894039942      16.8278496
9.523                0.894213688       16.763075
9.524                0.894386708      16.6984155
9.525                0.894559003      16.6338704
9.526                0.894730578      16.5694393
9.527                0.894901434      16.5051216
9.528                0.895071577      16.4409167
9.529                0.895241007      16.3768241
9.53                 0.895409729      16.3128431
9.531                0.895577745      16.2489733
9.532                0.895745059       16.185214
9.533                0.895911673      16.1215648
9.534                0.896077591       16.058025
9.535                0.896242815      15.9945941
9.536                0.896407349      15.9312716
9.537                0.896571194       15.868057
9.538                0.896734355      15.8049496
9.539                0.896896834      15.7419489
9.54                 0.897058634      15.6790545
9.541                0.897219757      15.6162658
9.542                0.897380207      15.5535822
9.543                0.897539987      15.4910032
9.544                0.897699099      15.4285283
9.545                0.897857545      15.3661569
9.546                 0.89801533      15.3038886
9.547                0.898172455      15.2417229
9.548                0.898328924      15.1796591
9.549                0.898484738      15.1176968
9.55                 0.898639902      15.0558354
9.551                0.898794416      14.9940745
9.552                0.898948285      14.9324136
9.553                0.899101511      14.8708521
9.554                0.899254097      14.8093895
9.555                0.899406044      14.7480254
9.556                0.899557356      14.6867591
9.557                0.899708036      14.6255904
9.558                0.899858085      14.5645185
9.559                0.900007507      14.5035431
9.56                 0.900156304      14.4426636
9.561                0.900304479      14.3818795
9.562                0.900452034      14.3211904
9.563                0.900598971      14.2605958
9.564                0.900745294      14.2000952
9.565                0.900891005      14.1396881
9.566                0.901036105       14.079374
9.567                0.901180599      14.0191524
9.568                0.901324487      13.9590229
9.569                0.901467774       13.898985
9.57                  0.90161046      13.8390382
9.571                0.901752548       13.779182
9.572                0.901894041      13.7194161
9.573                0.902034942      13.6597398
9.574                0.902175252      13.6001528
9.575                0.902314973      13.5406545
9.576                 0.90245411      13.4812446
9.577                0.902592662      13.4219225
9.578                0.902730634      13.3626878
9.579                0.902868027        13.30354
9.58                 0.903004843      13.2444787
9.581                0.903141085      13.1855035
9.582                0.903276755      13.1266138
9.583                0.903411855      13.0678092
9.584                0.903546388      13.0090893
9.585                0.903680356      12.9504537
9.586                0.903813761      12.8919018
9.587                0.903946604      12.8334333
9.588                 0.90407889      12.7750477
9.589                0.904210618      12.7167445
9.59                 0.904341793      12.6585234
9.591                0.904472415      12.6003838
9.592                0.904602488      12.5423254
9.593                0.904732012      12.4843477
9.594                0.904860991      12.4264504
9.595                0.904989426      12.3686328
9.596                 0.90511732      12.3108947
9.597                0.905244674      12.2532356
9.598                 0.90537149      12.1956551
9.599                0.905497772      12.1381527
9.6                   0.90562352      12.0807281
9.601                0.905748737      12.0233808