! TOUCHSTONE file generated by CST DESIGN STUDIO
! Date and time: Tue Feb  4 17:55:17 2025
! Project name: C:\Work\MatlabApps\UnitCellOptimizationMatlab\CST\unitcell.cst
! Tree item: Tasks\Sweep1\SPara1\S-Parameters
! Header version: 2024
! Port assignment regex: !\s*Touchstone port\s*([0-9]+)\s*=\s*(CST MWS port|CST DES external port|CST DES block port)\s*(.+)\s* \(\"(.*)\"\)(\s*mode\s*([0-9]+))?.*
! Touchstone port assignment:
! Touchstone port 1 = CST DES external port 1 ("")
# GHz S MA R 50
9                    0.981273194     -75.1340153
9.001                 0.98122806     -75.2469212
9.002                0.981182793     -75.3601042
9.003                0.981137392     -75.4735653
9.004                0.981091857     -75.5873051
9.005                0.981046188     -75.7013246
9.006                0.981000384     -75.8156245
9.007                0.980954445     -75.9302058
9.008                0.980908371     -76.0450693
9.009                0.980862162     -76.1602157
9.01                 0.980815817     -76.2756459
9.011                0.980769335     -76.3913609
9.012                0.980722717     -76.5073613
9.013                0.980675962     -76.6236482
9.014                 0.98062907     -76.7402222
9.015                0.980582041     -76.8570843
9.016                0.980534874     -76.9742353
9.017                0.980487569     -77.0916762
9.018                0.980440126     -77.2094076
9.019                0.980392544     -77.3274305
9.02                 0.980344824     -77.4457458
9.021                0.980296964     -77.5643543
9.022                0.980248965     -77.6832569
9.023                0.980200826     -77.8024545
9.024                0.980152547     -77.9219478
9.025                0.980104127     -78.0417379
9.026                0.980055567     -78.1618255
9.027                0.980006866     -78.2822115
9.028                0.979958024     -78.4028969
9.029                0.979909041     -78.5238824
9.03                 0.979859916      -78.645169
9.031                0.979810649     -78.7667576
9.032                0.979761239      -78.888649
9.033                0.979711687     -79.0108441
9.034                0.979661992     -79.1333438
9.035                0.979612154      -79.256149
9.036                0.979562173     -79.3792606
9.037                0.979512047     -79.5026794
9.038                0.979461778     -79.6264065
9.039                0.979411365     -79.7504426
9.04                 0.979360808     -79.8747886
9.041                0.979310105     -79.9994456
9.042                0.979259258     -80.1244143
9.043                0.979208266     -80.2496957
9.044                0.979157128     -80.3752906
9.045                0.979105844        -80.5012
9.046                0.979054415     -80.6274248
9.047                0.979002839     -80.7539659
9.048                0.978951117     -80.8808243
9.049                0.978899248     -81.0080007
9.05                 0.978847232     -81.1354962
9.051                0.978795069     -81.2633116
9.052                0.978742759     -81.3914479
9.053                0.978690301      -81.519906
9.054                0.978637695     -81.6486868
9.055                0.978584941     -81.7777912
9.056                0.978532039     -81.9072202
9.057                0.978478989     -82.0369746
9.058                0.978425789     -82.1670555
9.059                0.978372441     -82.2974637
9.06                 0.978318943     -82.4282001
9.061                0.978265296     -82.5592658
9.062                  0.9782115     -82.6906616
9.063                0.978157554     -82.8223885
9.064                0.978103458     -82.9544473
9.065                0.978049211     -83.0868391
9.066                0.977994815     -83.2195648
9.067                0.977940268     -83.3526253
9.068                 0.97788557     -83.4860215
9.069                0.977830721     -83.6197544
9.07                 0.977775721      -83.753825
9.071                 0.97772057     -83.8882342
9.072                0.977665267     -84.0229828
9.073                0.977609813      -84.158072
9.074                0.977554207     -84.2935026
9.075                0.977498449     -84.4292756
9.076                0.977442539     -84.5653919
9.077                0.977386477     -84.7018524
9.078                0.977330262     -84.8386582
9.079                0.977273895     -84.9758102
9.08                 0.977217375     -85.1133093
9.081                0.977160703     -85.2511565
9.082                0.977103877     -85.3893528
9.083                0.977046899     -85.5278991
9.084                0.976989767     -85.6667963
9.085                0.976932482     -85.8060455
9.086                0.976875044     -85.9456475
9.087                0.976817452     -86.0856035
9.088                0.976759706     -86.2259142
9.089                0.976701807     -86.3665807
9.09                 0.976643753     -86.5076039
9.091                0.976585546     -86.6489849
9.092                0.976527185     -86.7907245
9.093                 0.97646867     -86.9328237
9.094                    0.97641     -87.0752836
9.095                0.976351177      -87.218105
9.096                0.976292199      -87.361289
9.097                0.976233066     -87.5048365
9.098                 0.97617378     -87.6487484
9.099                0.976114338     -87.7930258
9.1                  0.976054743     -87.9376697
9.101                0.975994992     -88.0826809
9.102                0.975935087     -88.2280605
9.103                0.975875028     -88.3738094
9.104                0.975814813     -88.5199286
9.105                0.975754444     -88.6664191
9.106                0.975693921     -88.8132818
9.107                0.975633242     -88.9605178
9.108                0.975572409     -89.1081279
9.109                0.975511421     -89.2561133
9.11                 0.975450279     -89.4044748
9.111                0.975388982     -89.5532134
9.112                 0.97532753     -89.7023301
9.113                0.975265923     -89.8518258
9.114                0.975204162     -90.0017016
9.115                0.975142247     -90.1519584
9.116                0.975080177     -90.3025972
9.117                0.975017952      -90.453619
9.118                0.974955573     -90.6050247
9.119                 0.97489304     -90.7568153
9.12                 0.974830353     -90.9089918
9.121                0.974767511     -91.0615552
9.122                0.974704515     -91.2145063
9.123                0.974641366     -91.3678463
9.124                0.974578062     -91.5215761
9.125                0.974514605     -91.6756966
9.126                0.974450994     -91.8302088
9.127                0.974387229     -91.9851137
9.128                0.974323312     -92.1404123
9.129                 0.97425924     -92.2961054
9.13                 0.974195016     -92.4521942
9.131                0.974130639     -92.6086796
9.132                0.974066109     -92.7655625
9.133                0.974001427     -92.9228439
9.134                0.973936592     -93.0805247
9.135                0.973871604      -93.238606
9.136                0.973806465     -93.3970887
9.137                0.973741174     -93.5559737
9.138                0.973675731      -93.715262
9.139                0.973610137     -93.8749547
9.14                 0.973544392     -94.0350525
9.141                0.973478495     -94.1955566
9.142                0.973412448     -94.3564678
9.143                0.973346251     -94.5177872
9.144                0.973279903     -94.6795156
9.145                0.973213406      -94.841654
9.146                0.973146758     -95.0042034
9.147                0.973079962     -95.1671647
9.148                0.973013016     -95.3305389
9.149                0.972945922     -95.4943269
9.15                 0.972878679     -95.6585297
9.151                0.972811288     -95.8231482
9.152                0.972743749     -95.9881834
9.153                0.972676063     -96.1536361
9.154                 0.97260823     -96.3195074
9.155                 0.97254025     -96.4857982
9.156                0.972472123     -96.6525093
9.157                0.972403851     -96.8196418
9.158                0.972335433     -96.9871966
9.159                 0.97226687     -97.1551746
9.16                 0.972198163     -97.3235766
9.161                0.972129311     -97.4924038
9.162                0.972060315     -97.6616569
9.163                0.971991175     -97.8313369
9.164                0.971921893     -98.0014446
9.165                0.971852468     -98.1719812
9.166                0.971782901     -98.3429473
9.167                0.971713193      -98.514344
9.168                0.971643343     -98.6861721
9.169                0.971573353     -98.8584326
9.17                 0.971503223     -99.0311263
9.171                0.971432953     -99.2042542
9.172                0.971362544     -99.3778171
9.173                0.971291997      -99.551816
9.174                0.971221312     -99.7262516
9.175                 0.97115049      -99.901125
9.176                0.971079531     -100.076437
9.177                0.971008436     -100.252188
9.178                0.970937205      -100.42838
9.179                0.970865839     -100.605013
9.18                  0.97079434     -100.782088
9.181                0.970722706     -100.959606
9.182                0.970650939     -101.137568
9.183                0.970579041     -101.315975
9.184                 0.97050701     -101.494827
9.185                0.970434848     -101.674125
9.186                0.970362557     -101.853871
9.187                0.970290135     -102.034064
9.188                0.970217585     -102.214707
9.189                0.970144906     -102.395799
9.19                   0.9700721     -102.577342
9.191                0.969999168     -102.759337
9.192                0.969926109     -102.941783
9.193                0.969852925     -103.124683
9.194                0.969779617     -103.308036
9.195                0.969706186     -103.491844
9.196                0.969632631     -103.676107
9.197                0.969558955     -103.860827
9.198                0.969485157     -104.046004
9.199                0.969411239     -104.231638
9.2                  0.969337201     -104.417731
9.201                0.969263045     -104.604284
9.202                0.969188771     -104.791296
9.203                 0.96911438      -104.97877
9.204                0.969039873     -105.166705
9.205                0.968965251     -105.355103
9.206                0.968890515     -105.543964
9.207                0.968815665     -105.733289
9.208                0.968740702     -105.923079
9.209                0.968665628     -106.113334
9.21                 0.968590444     -106.304055
9.211                 0.96851515     -106.495243
9.212                0.968439746     -106.686899
9.213                0.968364235     -106.879023
9.214                0.968288617     -107.071616
9.215                0.968212893     -107.264679
9.216                0.968137064     -107.458212
9.217                0.968061131     -107.652216
9.218                0.967985095     -107.846692
9.219                0.967908956     -108.041641
9.22                 0.967832716     -108.237063
9.221                0.967756376     -108.432959
9.222                0.967679936     -108.629329
9.223                0.967603398     -108.826174
9.224                0.967526762     -109.023495
9.225                0.967450029     -109.221292
9.226                0.967373201     -109.419567
9.227                0.967296278     -109.618319
9.228                0.967219261      -109.81755
9.229                0.967142151     -110.017259
9.23                 0.967064948     -110.217448
9.231                0.966987654     -110.418118
9.232                0.966910269     -110.619268
9.233                0.966832795     -110.820899
9.234                0.966755231     -111.023012
9.235                0.966677578     -111.225608
9.236                0.966599838     -111.428687
9.237                0.966522011     -111.632249
9.238                0.966444097     -111.836296
9.239                0.966366096     -112.040828
9.24                 0.966288011     -112.245844
9.241                0.966209839     -112.451347
9.242                0.966131583     -112.657336
9.243                0.966053242     -112.863812
9.244                0.965974817     -113.070775
9.245                0.965896306     -113.278227
9.246                0.965817712     -113.486167
9.247                0.965739032     -113.694596
9.248                0.965660268     -113.903514
9.249                0.965581418     -114.112922
9.25                 0.965502482     -114.322821
9.251                0.965423459     -114.533211
9.252                0.965344348     -114.744092
9.253                0.965265148     -114.955465
9.254                0.965185858      -115.16733
9.255                0.965106477     -115.379688
9.256                0.965027001     -115.592539
9.257                0.964947429     -115.805884
9.258                0.964867759     -116.019724
9.259                0.964787988     -116.234057
9.26                 0.964708112     -116.448886
9.261                0.964628128      -116.66421
9.262                0.964548032      -116.88003
9.263                0.964467819     -117.096346
9.264                0.964387483     -117.313159
9.265                 0.96430702     -117.530469
9.266                0.964226423     -117.748276
9.267                0.964145684      -117.96658
9.268                0.964064796     -118.185383
9.269                0.963983749     -118.404684
9.27                 0.963902534     -118.624483
9.271                0.963821141     -118.844782
9.272                0.963739556     -119.065579
9.273                0.963657768     -119.286875
9.274                0.963575761     -119.508671
9.275                 0.96349352     -119.730966
9.276                0.963411027      -119.95376
9.277                0.963328263     -120.177054
9.278                0.963245207     -120.400847
9.279                0.963161837     -120.625138
9.28                 0.963078127     -120.849928
9.281                0.962994052     -121.075216
9.282                0.962909582     -121.301002
9.283                0.962824686     -121.527283
9.284                0.962739332      -121.75406
9.285                0.962653485     -121.981331
9.286                0.962567106     -122.209093
9.287                0.962480159     -122.437346
9.288                0.962392604     -122.666086
9.289                0.962304399      -122.89531
9.29                 0.962215507     -123.125016
9.291                0.962125887     -123.355199
9.292                0.962035505     -123.585854
9.293                0.961944329     -123.816976
9.294                0.961852334     -124.048559
9.295                0.961759504     -124.280596
9.296                0.961665835     -124.513079
9.297                 0.96157134     -124.746001
9.298                0.961476049     -124.979351
9.299                0.961380016     -125.213121
9.3                  0.961283322       -125.4473
9.301                0.961186078      -125.68188
9.302                0.961088427     -125.916849
9.303                0.960990549       -126.1522
9.304                0.960892658     -126.387926
9.305                0.960794998     -126.624019
9.306                0.960697843     -126.860478
9.307                0.960601483       -127.0973
9.308                0.960506221      -127.33449
9.309                0.960412353     -127.572054
9.31                 0.960320157         -127.81
9.311                0.960229883     -128.048341
9.312                0.960141732     -128.287094
9.313                0.960055856     -128.526275
9.314                0.959972341     -128.765902
9.315                0.959891214     -129.005996
9.316                0.959812438     -129.246575
9.317                0.959735922     -129.487655
9.318                0.959661529     -129.729252
9.319                0.959589085     -129.971378
9.32                  0.95951839     -130.214043
9.321                0.959449233     -130.457255
9.322                0.959381397     -130.701018
9.323                0.959314671     -130.945336
9.324                0.959248854     -131.190207
9.325                0.959183762      -131.43563
9.326                0.959119227     -131.681603
9.327                0.959055104     -131.928121
9.328                0.958991265      -132.17518
9.329                0.958927606     -132.422774
9.33                 0.958864037     -132.670898
9.331                0.958800486     -132.919546
9.332                0.958736898     -133.168712
9.333                0.958673229     -133.418391
9.334                0.958609446     -133.668578
9.335                0.958545528     -133.919266
9.336                0.958481459     -134.170451
9.337                0.958417233     -134.422128
9.338                0.958352847     -134.674293
9.339                0.958288303     -134.926942
9.34                 0.958223607     -135.180071
9.341                0.958158767     -135.433675
9.342                0.958093795     -135.687752
9.343                0.958028702     -135.942299
9.344                0.957963502     -136.197311
9.345                0.957898208     -136.452787
9.346                0.957832836     -136.708723
9.347                0.957767401     -136.965118
9.348                0.957701917     -137.221967
9.349                  0.9576364     -137.479269
9.35                 0.957570865     -137.737022
9.351                0.957505326     -137.995224
9.352                0.957439797     -138.253871
9.353                0.957374293     -138.512963
9.354                0.957308828     -138.772497
9.355                0.957243414      -139.03247
9.356                0.957178064     -139.292882
9.357                0.957112791      -139.55373
9.358                0.957047607     -139.815012
9.359                0.956982523     -140.076726
9.36                 0.956917551      -140.33887
9.361                0.956852702     -140.601443
9.362                0.956787986     -140.864443
9.363                0.956723413     -141.127867
9.364                0.956658994     -141.391714
9.365                0.956594737     -141.655982
9.366                0.956530651     -141.920669
9.367                0.956466747     -142.185773
9.368                0.956403031     -142.451293
9.369                0.956339514     -142.717225
9.37                 0.956276202     -142.983569
9.371                0.956213104     -143.250323
9.372                0.956150227     -143.517484
9.373                0.956087579     -143.785051
9.374                0.956025167     -144.053022
9.375                0.955962998     -144.321394
9.376                0.955901078     -144.590165
9.377                0.955839416     -144.859334
9.378                0.955778016     -145.128899
9.379                0.955716886     -145.398857
9.38                 0.955656032     -145.669207
9.381                 0.95559546     -145.939945
9.382                0.955535175     -146.211071
9.383                0.955475185     -146.482582
9.384                0.955415494     -146.754475
9.385                0.955356108     -147.026749
9.386                0.955297032     -147.299402
9.387                0.955238273     -147.572431
9.388                0.955179835     -147.845833
9.389                0.955121724     -148.119607
9.39                 0.955063944     -148.393751
9.391                0.955006502     -148.668261
9.392                0.954949402     -148.943136
9.393                0.954892648     -149.218373
9.394                0.954836246     -149.493971
9.395                0.954780201     -149.769925
9.396                0.954724517     -150.046235
9.397                0.954669199     -150.322897
9.398                0.954614251      -150.59991
9.399                0.954559679     -150.877269
9.4                  0.954505486     -151.154974
9.401                0.954451677     -151.433022
9.402                0.954398256     -151.711409
9.403                0.954345228     -151.990134
9.404                0.954292597     -152.269194
9.405                0.954240367     -152.548585
9.406                0.954188542     -152.828307
9.407                0.954137127     -153.108354
9.408                0.954086126     -153.388726
9.409                0.954035542      -153.66942
9.41                 0.953985379     -153.950432
9.411                0.953935642     -154.231759
9.412                0.953886335       -154.5134
9.413                0.953837461     -154.795351
9.414                0.953789024     -155.077609
9.415                0.953741028     -155.360172
9.416                0.953693477     -155.643037
9.417                0.953646374     -155.926201
9.418                0.953599723      -156.20966
9.419                0.953553528     -156.493412
9.42                 0.953507793     -156.777454
9.421                 0.95346252     -157.061784
9.422                0.953417713     -157.346397
9.423                0.953373376     -157.631291
9.424                0.953329513     -157.916464
9.425                0.953286126     -158.201911
9.426                0.953243219      -158.48763
9.427                0.953200796     -158.773617
9.428                0.953158859     -159.059871
9.429                0.953117412     -159.346386
9.43                 0.953076458     -159.633162
9.431                0.953036001     -159.920193
9.432                0.952996043     -160.207477
9.433                0.952956587     -160.495011
9.434                0.952917638     -160.782792
9.435                0.952879196     -161.070816
9.436                0.952841267     -161.359079
9.437                0.952803852      -161.64758
9.438                0.952766954     -161.936314
9.439                0.952730577     -162.225278
9.44                 0.952694722     -162.514469
9.441                0.952659394     -162.803884
9.442                0.952624595     -163.093518
9.443                0.952590327     -163.383369
9.444                0.952556593     -163.673434
9.445                0.952523396     -163.963708
9.446                0.952490738     -164.254189
9.447                0.952458622     -164.544873
9.448                0.952427051     -164.835757
9.449                0.952396026     -165.126836
9.45                 0.952365551     -165.418108
9.451                0.952335628     -165.709569
9.452                0.952306259     -166.001216
9.453                0.952277446     -166.293045
9.454                0.952249191     -166.585052
9.455                0.952221498     -166.877234
9.456                0.952194368     -167.169587
9.457                0.952167803     -167.462109
9.458                0.952141805     -167.754794
9.459                0.952116377      -168.04764
9.46                  0.95209152     -168.340642
9.461                0.952067237     -168.633798
9.462                0.952043529     -168.927104
9.463                0.952020398     -169.220556
9.464                0.951997846     -169.514149
9.465                0.951975875     -169.807882
9.466                0.951954486     -170.101749
9.467                0.951933682     -170.395748
9.468                0.951913464     -170.689873
9.469                0.951893834     -170.984123
9.47                 0.951874792     -171.278493
9.471                0.951856342     -171.572979
9.472                0.951838483     -171.867577
9.473                0.951821219     -172.162284
9.474                0.951804549     -172.457096
9.475                0.951788475      -172.75201
9.476                0.951772999      -173.04702
9.477                0.951758122     -173.342125
9.478                0.951743846     -173.637319
9.479                 0.95173017     -173.932599
9.48                 0.951717097     -174.227961
9.481                0.951704627     -174.523402
9.482                0.951692762     -174.818917
9.483                0.951681502     -175.114503
9.484                0.951670848     -175.410155
9.485                0.951660802     -175.705871
9.486                0.951651363     -176.001645
9.487                0.951642534     -176.297475
9.488                0.951634314     -176.593357
9.489                0.951626704     -176.889286
9.49                 0.951619705     -177.185258
9.491                0.951613318      -177.48127
9.492                0.951607542     -177.777319
9.493                0.951602379     -178.073399
9.494                0.951597829     -178.369508
9.495                0.951593892      -178.66564
9.496                0.951590569     -178.961794
9.497                 0.95158786     -179.257963
9.498                0.951585765     -179.554145
9.499                0.951584284     -179.850336
9.5                  0.951583418      179.853468
9.501                0.951583166      179.557271
9.502                0.951583529      179.261077
9.503                0.951584507       178.96489
9.504                0.951586099      178.668714
9.505                0.951588306      178.372552
9.506                0.951591127      178.076409
9.507                0.951594563      177.780289
9.508                0.951598612      177.484194
9.509                0.951603275       177.18813
9.51                 0.951608552        176.8921
9.511                0.951614441      176.596108
9.512                0.951620943      176.300157
9.513                0.951628057      176.004253
9.514                0.951635782      175.708398
9.515                0.951644118      175.412596
9.516                0.951653065      175.116851
9.517                0.951662621      174.821168
9.518                0.951672786       174.52555
9.519                 0.95168356          174.23
9.52                  0.95169494      173.934523
9.521                0.951706928      173.639123
9.522                 0.95171952      173.343803
9.523                0.951732718      173.048567
9.524                0.951746519      172.753419
9.525                0.951760922      172.458363
9.526                0.951775927      172.163403
9.527                0.951791533      171.868542
9.528                0.951807737      171.573784
9.529                 0.95182454      171.279133
9.53                 0.951841939      170.984593
9.531                0.951859934      170.690167
9.532                0.951878522       170.39586
9.533                0.951897703      170.101674
9.534                0.951917476      169.807614
9.535                0.951937838      169.513684
9.536                0.951958788      169.219887
9.537                0.951980325      168.926226
9.538                0.952002447      168.632707
9.539                0.952025152      168.339331
9.54                 0.952048439      168.046103
9.541                0.952072305      167.753027
9.542                 0.95209675      167.460106
9.543                0.952121771      167.167344
9.544                0.952147366      166.874745
9.545                0.952173534      166.582311
9.546                0.952200272      166.290048
9.547                0.952227579      165.997957
9.548                0.952255452      165.706044
9.549                 0.95228389       165.41431
9.55                  0.95231289      165.122761
9.551                 0.95234245      164.831399
9.552                0.952372569      164.540229
9.553                0.952403243      164.249252
9.554                0.952434471      163.958474
9.555                 0.95246625      163.667897
9.556                0.952498578      163.377525
9.557                0.952531453      163.087362
9.558                0.952564872       162.79741
9.559                0.952598832      162.507674
9.56                 0.952633332      162.218156
9.561                0.952668369       161.92886
9.562                0.952703941       161.63979
9.563                0.952740044      161.350948
9.564                0.952776676      161.062338
9.565                0.952813834      160.773964
9.566                0.952851517      160.485828
9.567                0.952889721      160.197934
9.568                0.952928443      159.910285
9.569                0.952967681      159.622885
9.57                 0.953007432      159.335736
9.571                0.953047693      159.048843
9.572                0.953088461      158.762207
9.573                0.953129734      158.475832
9.574                0.953171509      158.189722
9.575                0.953213782      157.903879
9.576                0.953256551      157.618307
9.577                0.953299812      157.333009
9.578                0.953343563      157.047987
9.579                0.953387801      156.763246
9.58                 0.953432523      156.478787
9.581                0.953477725      156.194614
9.582                0.953523405      155.910729
9.583                0.953569559      155.627137
9.584                0.953616184       155.34384
9.585                0.953663277       155.06084
9.586                0.953710836      154.778141
9.587                0.953758856      154.495745
9.588                0.953807334      154.213656
9.589                0.953856268      153.931876
9.59                 0.953905653      153.650408
9.591                0.953955488      153.369255
9.592                0.954005767       153.08842
9.593                0.954056489      152.807905
9.594                0.954107649      152.527714
9.595                0.954159245      152.247848
9.596                0.954211273      151.968311
9.597                0.954263729      151.689105
9.598                0.954316611      151.410233
9.599                0.954369914      151.131698
9.6                  0.954423636      150.853502
9.601                0.954477772      150.575648