! TOUCHSTONE file generated by CST DESIGN STUDIO
! Date and time: Tue Feb  4 13:08:14 2025
! Project name: C:\Work\MatlabApps\UnitCellOptimizationMatlab\CST\unitcell.cst
! Tree item: Tasks\Sweep1\SPara1\S-Parameters
! Header version: 2024
! Port assignment regex: !\s*Touchstone port\s*([0-9]+)\s*=\s*(CST MWS port|CST DES external port|CST DES block port)\s*(.+)\s* \(\"(.*)\"\)(\s*mode\s*([0-9]+))?.*
! Touchstone port assignment:
! Touchstone port 1 = CST DES external port 1 ("")
# GHz S MA R 50
9                    0.974857929     -67.6721883
9.001                 0.97480155     -67.7695233
9.002                0.974744997     -67.8670918
9.003                0.974688272     -67.9648944
9.004                0.974631372     -68.0629319
9.005                0.974574298     -68.1612051
9.006                0.974517049     -68.2597146
9.007                0.974459625     -68.3584611
9.008                0.974402025     -68.4574455
9.009                0.974344248     -68.5566685
9.01                 0.974286295     -68.6561307
9.011                0.974228164      -68.755833
9.012                0.974169856     -68.8557761
9.013                0.974111369     -68.9559607
9.014                0.974052703     -69.0563876
9.015                0.973993858     -69.1570576
9.016                0.973934833     -69.2579713
9.017                0.973875628     -69.3591296
9.018                0.973816241     -69.4605332
9.019                0.973756674     -69.5621829
9.02                 0.973696924     -69.6640794
9.021                0.973636993     -69.7662235
9.022                0.973576878      -69.868616
9.023                 0.97351658     -69.9712576
9.024                0.973456098     -70.0741492
9.025                0.973395432     -70.1772914
9.026                0.973334581     -70.2806851
9.027                0.973273544      -70.384331
9.028                0.973212322       -70.48823
9.029                0.973150913     -70.5923828
9.03                 0.973089317     -70.6967901
9.031                0.973027534     -70.8014529
9.032                0.972965564     -70.9063719
9.033                0.972903404     -71.0115478
9.034                0.972841056     -71.1169815
9.035                0.972778519     -71.2226738
9.036                0.972715792     -71.3286254
9.037                0.972652874     -71.4348372
9.038                0.972589766       -71.54131
9.039                0.972526466     -71.6480446
9.04                 0.972462974     -71.7550417
9.041                 0.97239929     -71.8623023
9.042                0.972335413     -71.9698271
9.043                0.972271343     -72.0776169
9.044                0.972207079     -72.1856726
9.045                0.972142621      -72.293995
9.046                0.972077968     -72.4025848
9.047                0.972013119      -72.511443
9.048                0.971948075     -72.6205704
9.049                0.971882835     -72.7299677
9.05                 0.971817398     -72.8396359
9.051                0.971751763     -72.9495757
9.052                0.971685931      -73.059788
9.053                  0.9716199     -73.1702736
9.054                0.971553671     -73.2810334
9.055                0.971487243     -73.3920683
9.056                0.971420615      -73.503379
9.057                0.971353786     -73.6149664
9.058                0.971286757     -73.7268314
9.059                0.971219527     -73.8389748
9.06                 0.971152095     -73.9513974
9.061                0.971084462     -74.0641002
9.062                0.971016625      -74.177084
9.063                0.970948586     -74.2903497
9.064                0.970880343      -74.403898
9.065                0.970811896       -74.51773
9.066                0.970743244     -74.6318464
9.067                0.970674388     -74.7462481
9.068                0.970605326     -74.8609361
9.069                0.970536058     -74.9759111
9.07                 0.970466584     -75.0911741
9.071                0.970396903     -75.2067259
9.072                0.970327014     -75.3225674
9.073                0.970256918     -75.4386995
9.074                0.970186614     -75.5551232
9.075                0.970116101     -75.6718392
9.076                0.970045379     -75.7888484
9.077                0.969974448     -75.9061519
9.078                0.969903306     -76.0237504
9.079                0.969831954     -76.1416449
9.08                 0.969760391     -76.2598362
9.081                0.969688616     -76.3783253
9.082                 0.96961663     -76.4971131
9.083                0.969544431     -76.6162004
9.084                 0.96947202     -76.7355882
9.085                0.969399395     -76.8552774
9.086                0.969326557      -76.975269
9.087                0.969253505     -77.0955637
9.088                0.969180239     -77.2161626
9.089                0.969106757     -77.3370666
9.09                 0.969033061     -77.4582765
9.091                0.968959148     -77.5797933
9.092                0.968885019      -77.701618
9.093                0.968810674     -77.8237515
9.094                0.968736112     -77.9461946
9.095                0.968661332     -78.0689484
9.096                0.968586335     -78.1920137
9.097                0.968511119     -78.3153915
9.098                0.968435685     -78.4390828
9.099                0.968360031     -78.5630884
9.1                  0.968284159     -78.6874094
9.101                0.968208066     -78.8120466
9.102                0.968131753      -78.937001
9.103                 0.96805522     -79.0622736
9.104                0.967978465     -79.1878652
9.105                0.967901489      -79.313777
9.106                0.967824292     -79.4400097
9.107                0.967746872     -79.5665645
9.108                 0.96766923     -79.6934421
9.109                0.967591365     -79.8206437
9.11                 0.967513276     -79.9481701
9.111                0.967434964     -80.0760223
9.112                0.967356428     -80.2042013
9.113                0.967277668     -80.3327081
9.114                0.967198683     -80.4615435
9.115                0.967119473     -80.5907087
9.116                0.967040038     -80.7202045
9.117                0.966960377      -80.850032
9.118                 0.96688049     -80.9801921
9.119                0.966800377     -81.1106858
9.12                 0.966720037      -81.241514
9.121                 0.96663947     -81.3726778
9.122                0.966558676     -81.5041782
9.123                0.966477654     -81.6360161
9.124                0.966396404     -81.7681924
9.125                0.966314926     -81.9007083
9.126                 0.96623322     -82.0335647
9.127                0.966151285     -82.1667626
9.128                 0.96606912     -82.3003029
9.129                0.965986727     -82.4341868
9.13                 0.965904103     -82.5684151
9.131                 0.96582125     -82.7029888
9.132                0.965738167     -82.8379091
9.133                0.965654853     -82.9731768
9.134                0.965571308      -83.108793
9.135                0.965487533     -83.2447586
9.136                0.965403526     -83.3810748
9.137                0.965319288     -83.5177424
9.138                0.965234819     -83.6547625
9.139                0.965150117     -83.7921362
9.14                 0.965065184     -83.9298644
9.141                0.964980018     -84.0679481
9.142                0.964894619     -84.2063883
9.143                0.964808988     -84.3451861
9.144                0.964723125     -84.4843425
9.145                0.964637028     -84.6238585
9.146                0.964550697     -84.7637352
9.147                0.964464134     -84.9039734
9.148                0.964377337     -85.0445743
9.149                0.964290306     -85.1855389
9.15                 0.964203041     -85.3268682
9.151                0.964115542     -85.4685633
9.152                0.964027809     -85.6106251
9.153                0.963939842     -85.7530547
9.154                 0.96385164     -85.8958531
9.155                0.963763204     -86.0390213
9.156                0.963674533     -86.1825604
9.157                0.963585627     -86.3264714
9.158                0.963496487     -86.4707553
9.159                0.963407111     -86.6154132
9.16                 0.963317501     -86.7604461
9.161                0.963227656     -86.9058551
9.162                0.963137575     -87.0516411
9.163                0.963047259     -87.1978052
9.164                0.962956709     -87.3443484
9.165                0.962865923     -87.4912718
9.166                0.962774901     -87.6385765
9.167                0.962683645     -87.7862633
9.168                0.962592153     -87.9343335
9.169                0.962500426      -88.082788
9.17                 0.962408463     -88.2316279
9.171                0.962316266     -88.3808541
9.172                0.962223833     -88.5304679
9.173                0.962131165     -88.6804701
9.174                0.962038262     -88.8308618
9.175                0.961945124     -88.9816441
9.176                0.961851751      -89.132818
9.177                0.961758143     -89.2843846
9.178                0.961664301     -89.4363448
9.179                0.961570223     -89.5886998
9.18                 0.961475912     -89.7414506
9.181                0.961381365     -89.8945982
9.182                0.961286585     -90.0481436
9.183                 0.96119157      -90.202088
9.184                0.961096321     -90.3564323
9.185                0.961000838     -90.5111776
9.186                0.960905122     -90.6663249
9.187                0.960809172     -90.8218753
9.188                0.960712989     -90.9778298
9.189                0.960616573     -91.1341894
9.19                 0.960519924     -91.2909553
9.191                0.960423043     -91.4481283
9.192                0.960325929     -91.6057097
9.193                0.960228583     -91.7637003
9.194                0.960131006     -91.9221013
9.195                0.960033197     -92.0809137
9.196                0.959935156     -92.2401385
9.197                0.959836885     -92.3997767
9.198                0.959738383     -92.5598295
9.199                0.959639651     -92.7202977
9.2                  0.959540689     -92.8811825
9.201                0.959441498      -93.042485
9.202                0.959342077      -93.204206
9.203                0.959242428     -93.3663467
9.204                 0.95914255     -93.5289081
9.205                0.959042445     -93.6918912
9.206                0.958942112      -93.855297
9.207                0.958841552     -94.0191266
9.208                0.958740766      -94.183381
9.209                0.958639753     -94.3480611
9.21                 0.958538515     -94.5131682
9.211                0.958437052      -94.678703
9.212                0.958335364     -94.8446668
9.213                0.958233452     -95.0110604
9.214                0.958131317     -95.1778849
9.215                0.958028959     -95.3451414
9.216                0.957926379     -95.5128308
9.217                0.957823577     -95.6809541
9.218                0.957720554     -95.8495123
9.219                 0.95761731     -96.0185065
9.22                 0.957513847     -96.1879377
9.221                0.957410165     -96.3578068
9.222                0.957306264     -96.5281148
9.223                0.957202145     -96.6988628
9.224                 0.95709781     -96.8700518
9.225                0.956993258     -97.0416826
9.226                0.956888491     -97.2137564
9.227                0.956783509     -97.3862741
9.228                0.956678313     -97.5592367
9.229                0.956572904     -97.7326451
9.23                 0.956467282     -97.9065005
9.231                0.956361449     -98.0808036
9.232                0.956255406     -98.2555555
9.233                0.956149153     -98.4307572
9.234                 0.95604269     -98.6064096
9.235                 0.95593602     -98.7825137
9.236                0.955829143     -98.9590705
9.237                 0.95572206     -99.1360809
9.238                0.955614772     -99.3135458
9.239                 0.95550728     -99.4914663
9.24                 0.955399585     -99.6698432
9.241                0.955291688     -99.8486775
9.242                 0.95518359      -100.02797
9.243                0.955075292     -100.207722
9.244                0.954966795     -100.387934
9.245                  0.9548581     -100.568607
9.246                0.954749209     -100.749743
9.247                0.954640123     -100.931341
9.248                0.954530842     -101.113403
9.249                0.954421369      -101.29593
9.25                 0.954311704     -101.478922
9.251                0.954201848     -101.662381
9.252                0.954091803     -101.846308
9.253                0.953981569     -102.030703
9.254                 0.95387115     -102.215567
9.255                0.953760545     -102.400902
9.256                0.953649756     -102.586707
9.257                0.953538784     -102.772984
9.258                0.953427631     -102.959735
9.259                0.953316298     -103.146958
9.26                 0.953204787     -103.334656
9.261                0.953093099      -103.52283
9.262                0.952981236     -103.711479
9.263                0.952869199     -103.900606
9.264                 0.95275699      -104.09021
9.265                 0.95264461     -104.280293
9.266                 0.95253206     -104.470855
9.267                0.952419344     -104.661898
9.268                0.952306461     -104.853422
9.269                0.952193414     -105.045428
9.27                 0.952080204     -105.237916
9.271                0.951966834     -105.430888
9.272                0.951853304     -105.624344
9.273                0.951739618     -105.818285
9.274                0.951625775     -106.012712
9.275                0.951511779     -106.207625
9.276                0.951397631     -106.403025
9.277                0.951283333     -106.598914
9.278                0.951168887     -106.795291
9.279                0.951054294     -106.992158
9.28                 0.950939558     -107.189515
9.281                0.950824679     -107.387364
9.282                0.950709659     -107.585703
9.283                0.950594502     -107.784535
9.284                0.950479208      -107.98386
9.285                 0.95036378     -108.183679
9.286                 0.95024822     -108.383992
9.287                 0.95013253       -108.5848
9.288                0.950016713     -108.786104
9.289                0.949900769     -108.987904
9.29                 0.949784703     -109.190202
9.291                0.949668515     -109.392996
9.292                0.949552209     -109.596289
9.293                0.949435786     -109.800081
9.294                0.949319249     -110.004373
9.295                  0.9492026     -110.209164
9.296                0.949085842     -110.414456
9.297                0.948968977     -110.620249
9.298                0.948852007     -110.826544
9.299                0.948734935     -111.033342
9.3                  0.948617764     -111.240642
9.301                0.948500496     -111.448445
9.302                0.948383133     -111.656753
9.303                0.948265678     -111.865565
9.304                0.948148134     -112.074882
9.305                0.948030504     -112.284704
9.306                 0.94791279     -112.495032
9.307                0.947794994     -112.705866
9.308                 0.94767712     -112.917208
9.309                 0.94755917     -113.129056
9.31                 0.947441148     -113.341413
9.311                0.947323056     -113.554277
9.312                0.947204896      -113.76765
9.313                0.947086672     -113.981532
9.314                0.946968387     -114.195924
9.315                0.946850044     -114.410825
9.316                0.946731645     -114.626236
9.317                0.946613194     -114.842157
9.318                0.946494693     -115.058589
9.319                0.946376147     -115.275533
9.32                 0.946257557     -115.492987
9.321                0.946138928     -115.710954
9.322                0.946020261     -115.929432
9.323                0.945901562     -116.148423
9.324                0.945782832     -116.367926
9.325                0.945664075     -116.587942
9.326                0.945545294     -116.808471
9.327                0.945426493     -117.029513
9.328                0.945307675     -117.251069
9.329                0.945188843     -117.473138
9.33                 0.945070001     -117.695721
9.331                0.944951152     -117.918818
9.332                0.944832301     -118.142429
9.333                0.944713449     -118.366554
9.334                0.944594602     -118.591194
9.335                0.944475762     -118.816348
9.336                0.944356933     -119.042017
9.337                0.944238119       -119.2682
9.338                0.944119323     -119.494898
9.339                 0.94400055      -119.72211
9.34                 0.943881802     -119.949838
9.341                0.943763084      -120.17808
9.342                  0.9436444     -120.406836
9.343                0.943525753     -120.636108
9.344                0.943407148     -120.865894
9.345                0.943288587     -121.096195
9.346                0.943170076      -121.32701
9.347                0.943051617      -121.55834
9.348                0.942933216     -121.790184
9.349                0.942814876     -122.022543
9.35                 0.942696601     -122.255415
9.351                0.942578396     -122.488802
9.352                0.942460264     -122.722702
9.353                0.942342209     -122.957116
9.354                0.942224236     -123.192043
9.355                 0.94210635     -123.427483
9.356                0.941988553     -123.663436
9.357                0.941870851     -123.899902
9.358                0.941753248      -124.13688
9.359                0.941635748      -124.37437
9.36                 0.941518356     -124.612372
9.361                0.941401076     -124.850885
9.362                0.941283912     -125.089909
9.363                0.941166869     -125.329444
9.364                0.941049951     -125.569489
9.365                0.940933163     -125.810044
9.366                 0.94081651     -126.051108
9.367                0.940699996     -126.292681
9.368                0.940583626     -126.534763
9.369                0.940467403     -126.777352
9.37                 0.940351334     -127.020449
9.371                0.940235423     -127.264053
9.372                0.940119673     -127.508163
9.373                0.940004091      -127.75278
9.374                0.939888681     -127.997901
9.375                0.939773448     -128.243527
9.376                0.939658396     -128.489656
9.377                0.939543531     -128.736289
9.378                0.939428857     -128.983425
9.379                 0.93931438     -129.231063
9.38                 0.939200103     -129.479201
9.381                0.939086033      -129.72784
9.382                0.938972174     -129.976979
9.383                0.938858531     -130.226617
9.384                0.938745109     -130.476752
9.385                0.938631914     -130.727385
9.386                 0.93851895     -130.978514
9.387                0.938406222     -131.230139
9.388                0.938293737     -131.482258
9.389                0.938181498     -131.734871
9.39                 0.938069511     -131.987977
9.391                0.937957781     -132.241575
9.392                0.937846314     -132.495663
9.393                0.937735114     -132.750241
9.394                0.937624188     -133.005308
9.395                0.937513539     -133.260862
9.396                0.937403175     -133.516903
9.397                0.937293099     -133.773429
9.398                0.937183318      -134.03044
9.399                0.937073836     -134.287934
9.4                  0.936964659      -134.54591
9.401                0.936855793     -134.804367
9.402                0.936747243     -135.063304
9.403                0.936639014     -135.322718
9.404                0.936531112      -135.58261
9.405                0.936423542     -135.842978
9.406                 0.93631631      -136.10382
9.407                0.936209422     -136.365135
9.408                0.936102882     -136.626922
9.409                0.935996697     -136.889179
9.41                 0.935890872     -137.151905
9.411                0.935785412     -137.415099
9.412                0.935680324     -137.678759
9.413                0.935575612     -137.942883
9.414                0.935471283      -138.20747
9.415                0.935367342     -138.472519
9.416                0.935263794     -138.738028
9.417                0.935160646     -139.003995
9.418                0.935057902     -139.270418
9.419                0.934955569     -139.537297
9.42                 0.934853653     -139.804629
9.421                0.934752158     -140.072413
9.422                0.934651091     -140.340646
9.423                0.934550458     -140.609328
9.424                0.934450263     -140.878457
9.425                0.934350513      -141.14803
9.426                0.934251214     -141.418046
9.427                0.934152371     -141.688502
9.428                 0.93405399     -141.959398
9.429                0.933956076     -142.230732
9.43                 0.933858636       -142.5025
9.431                0.933761675     -142.774702
9.432                0.933665198     -143.047335
9.433                0.933569213     -143.320398
9.434                0.933473723     -143.593888
9.435                0.933378736     -143.867803
9.436                0.933284256     -144.142141
9.437                 0.93319029     -144.416901
9.438                0.933096843     -144.692079
9.439                0.933003921     -144.967675
9.44                 0.932911529     -145.243685
9.441                0.932819674     -145.520107
9.442                0.932728361      -145.79694
9.443                0.932637595     -146.074181
9.444                0.932547383     -146.351827
9.445                 0.93245773     -146.629877
9.446                0.932368642     -146.908327
9.447                0.932280125     -147.187177
9.448                0.932192183     -147.466422
9.449                0.932104823     -147.746062
9.45                  0.93201805     -148.026093
9.451                 0.93193187     -148.306513
9.452                0.931846289     -148.587319
9.453                0.931761312      -148.86851
9.454                0.931676945     -149.150081
9.455                0.931593193     -149.432032
9.456                0.931510062     -149.714359
9.457                0.931427557      -149.99706
9.458                0.931345683     -150.280132
9.459                0.931264447     -150.563572
9.46                 0.931183854     -150.847377
9.461                0.931103909     -151.131546
9.462                0.931024618     -151.416075
9.463                0.930945986     -151.700961
9.464                0.930868018     -151.986202
9.465                 0.93079072     -152.271795
9.466                0.930714096     -152.557737
9.467                0.930638154     -152.844025
9.468                0.930562897     -153.130657
9.469                 0.93048833     -153.417628
9.47                  0.93041446     -153.704937
9.471                0.930341291     -153.992581
9.472                0.930268829     -154.280556
9.473                0.930197078      -154.56886
9.474                0.930126043     -154.857489
9.475                0.930055731      -155.14644
9.476                0.929986145     -155.435711
9.477                0.929917291     -155.725298
9.478                0.929849173     -156.015198
9.479                0.929781797     -156.305408
9.48                 0.929715168     -156.595925
9.481                 0.92964929     -156.886746
9.482                0.929584168     -157.177867
9.483                0.929519807     -157.469285
9.484                0.929456212     -157.760997
9.485                0.929393388     -158.052999
9.486                0.929331338     -158.345289
9.487                0.929270068     -158.637864
9.488                0.929209582     -158.930718
9.489                0.929149884      -159.22385
9.49                  0.92909098     -159.517256
9.491                0.929032874     -159.810933
9.492                 0.92897557     -160.104876
9.493                0.928919072     -160.399083
9.494                0.928863384     -160.693551
9.495                0.928808512     -160.988275
9.496                0.928754459     -161.283252
9.497                0.928701229     -161.578479
9.498                0.928648826     -161.873953
9.499                0.928597254     -162.169668
9.5                  0.928546518     -162.465623
9.501                0.928496622     -162.761813
9.502                0.928447568     -163.058235
9.503                0.928399362     -163.354885
9.504                0.928352006      -163.65176
9.505                0.928305505     -163.948855
9.506                0.928259862     -164.246168
9.507                0.928215081     -164.543694
9.508                0.928171165     -164.841429
9.509                0.928128118     -165.139371
9.51                 0.928085943     -165.437515
9.511                0.928044644     -165.735857
9.512                0.928004224     -166.034394
9.513                0.927964686     -166.333122
9.514                0.927926034     -166.632036
9.515                 0.92788827     -166.931134
9.516                0.927851397     -167.230411
9.517                 0.92781542     -167.529864
9.518                0.927780339     -167.829489
9.519                0.927746159     -168.129281
9.52                 0.927712883     -168.429237
9.521                0.927680512     -168.729352
9.522                 0.92764905     -169.029624
9.523                0.927618499     -169.330048
9.524                0.927588862      -169.63062
9.525                0.927560141     -169.931336
9.526                0.927532338     -170.232192
9.527                0.927505457     -170.533184
9.528                0.927479499     -170.834308
9.529                0.927454467     -171.135561
9.53                 0.927430362     -171.436937
9.531                0.927407186     -171.738434
9.532                0.927384943     -172.040046
9.533                0.927363632     -172.341771
9.534                0.927343258     -172.643604
9.535                 0.92732382      -172.94554
9.536                0.927305321     -173.247576
9.537                0.927287763     -173.549708
9.538                0.927271147     -173.851931
9.539                0.927255474     -174.154242
9.54                 0.927240746     -174.456636
9.541                0.927226965     -174.759109
9.542                0.927214131     -175.061658
9.543                0.927202246     -175.364277
9.544                 0.92719131     -175.666964
9.545                0.927181326     -175.969713
9.546                0.927172293      -176.27252
9.547                0.927164213     -176.575382
9.548                0.927157087     -176.878294
9.549                0.927150914     -177.181253
9.55                 0.927145697     -177.484253
9.551                0.927141435     -177.787291
9.552                0.927138129     -178.090363
9.553                 0.92713578     -178.393464
9.554                0.927134387      -178.69659
9.555                0.927133952     -178.999738
9.556                0.927134473     -179.302902
9.557                0.927135952     -179.606079
9.558                0.927138389     -179.909264
9.559                0.927141782      179.787546
9.56                 0.927146134      179.484356
9.561                0.927151442       179.18117
9.562                0.927157707      178.877992
9.563                0.927164928      178.574827
9.564                0.927173106      178.271678
9.565                0.927182239       177.96855
9.566                0.927192328      177.665447
9.567                 0.92720337      177.362373
9.568                0.927215367      177.059332
9.569                0.927228316      176.756329
9.57                 0.927242217      176.453368
9.571                 0.92725707      176.150452
9.572                0.927272872      175.847586
9.573                0.927289623      175.544774
9.574                0.927307322       175.24202
9.575                0.927325968      174.939329
9.576                0.927345559      174.636705
9.577                0.927366094      174.334151
9.578                0.927387571      174.031672
9.579                0.927409989      173.729272
9.58                 0.927433346      173.426954
9.581                0.927457641      173.124724
9.582                0.927482871      172.822586
9.583                0.927509035      172.520542
9.584                0.927536132      172.218599
9.585                0.927564158      171.916758
9.586                0.927593112      171.615025
9.587                0.927622992      171.313404
9.588                0.927653796      171.011899
9.589                0.927685521      170.710513
9.59                 0.927718166      170.409251
9.591                0.927751727      170.108117
9.592                0.927786202      169.807115
9.593                0.927821589      169.506249
9.594                0.927857885      169.205522
9.595                0.927895087      168.904939
9.596                0.927933193      168.604504
9.597                0.927972199      168.304221
9.598                0.928012104      168.004094
9.599                0.928052904      167.704126
9.6                  0.928094596      167.404321
9.601                0.928137176      167.104684