! TOUCHSTONE file generated by CST DESIGN STUDIO
! Date and time: Tue Feb  4 16:12:23 2025
! Project name: C:\Work\MatlabApps\UnitCellOptimizationMatlab\CST\unitcell.cst
! Tree item: Tasks\Sweep1\SPara1\S-Parameters
! Header version: 2024
! Port assignment regex: !\s*Touchstone port\s*([0-9]+)\s*=\s*(CST MWS port|CST DES external port|CST DES block port)\s*(.+)\s* \(\"(.*)\"\)(\s*mode\s*([0-9]+))?.*
! Touchstone port assignment:
! Touchstone port 1 = CST DES external port 1 ("")
# GHz S MA R 50
9                    0.949422579     -64.9166058
9.001                0.949322561     -65.0100375
9.002                0.949222276     -65.1037041
9.003                0.949121724     -65.1976065
9.004                0.949020903     -65.2917454
9.005                0.948919812     -65.3861216
9.006                 0.94881845      -65.480736
9.007                0.948716818     -65.5755893
9.008                0.948614912     -65.6706823
9.009                0.948512734     -65.7660159
9.01                 0.948410281     -65.8615908
9.011                0.948307554     -65.9574079
9.012                 0.94820455      -66.053468
9.013                0.948101269     -66.1497718
9.014                 0.94799771     -66.2463203
9.015                0.947893873     -66.3431143
9.016                0.947789755     -66.4401545
9.017                0.947685357     -66.5374419
9.018                0.947580678     -66.6349771
9.019                0.947475716     -66.7327612
9.02                  0.94737047     -66.8307949
9.021                 0.94726494      -66.929079
9.022                0.947159124     -67.0276145
9.023                0.947053022     -67.1264021
9.024                0.946946633     -67.2254427
9.025                0.946839956     -67.3247372
9.026                0.946732989     -67.4242864
9.027                0.946625733     -67.5240912
9.028                0.946518185     -67.6241524
9.029                0.946410345     -67.7244709
9.03                 0.946302212     -67.8250476
9.031                0.946193786     -67.9258834
9.032                0.946085064     -68.0269791
9.033                0.945976047     -68.1283356
9.034                0.945866733     -68.2299538
9.035                0.945757121     -68.3318346
9.036                 0.94564721     -68.4339788
9.037                   0.945537     -68.5363874
9.038                0.945426488     -68.6390613
9.039                0.945315676     -68.7420012
9.04                 0.945204561     -68.8452083
9.041                0.945093142     -68.9486832
9.042                0.944981419     -69.0524271
9.043                 0.94486939     -69.1564407
9.044                0.944757055     -69.2607249
9.045                0.944644412     -69.3652808
9.046                0.944531461     -69.4701092
9.047                0.944418201      -69.575211
9.048                 0.94430463     -69.6805871
9.049                0.944190748     -69.7862386
9.05                 0.944076554     -69.8921662
9.051                0.943962046      -69.998371
9.052                0.943847224     -70.1048539
9.053                0.943732087     -70.2116158
9.054                0.943616634     -70.3186577
9.055                0.943500864     -70.4259805
9.056                0.943384775     -70.5335852
9.057                0.943268368     -70.6414727
9.058                 0.94315164      -70.749644
9.059                0.943034592        -70.8581
9.06                 0.942917221     -70.9668417
9.061                0.942799527     -71.0758701
9.062                 0.94268151     -71.1851861
9.063                0.942563167     -71.2947907
9.064                0.942444498     -71.4046849
9.065                0.942325503     -71.5148696
9.066                0.942206179     -71.6253459
9.067                0.942086527     -71.7361147
9.068                0.941966545     -71.8471771
9.069                0.941846232     -71.9585339
9.07                 0.941725587     -72.0701862
9.071                 0.94160461      -72.182135
9.072                0.941483299     -72.2943813
9.073                0.941361653     -72.4069261
9.074                0.941239671     -72.5197705
9.075                0.941117353     -72.6329153
9.076                0.940994697     -72.7463617
9.077                0.940871703     -72.8601106
9.078                0.940748369      -72.974163
9.079                0.940624694     -73.0885201
9.08                 0.940500678     -73.2031828
9.081                0.940376319     -73.3181521
9.082                0.940251617     -73.4334291
9.083                0.940126571     -73.5490148
9.084                0.940001179     -73.6649103
9.085                0.939875441     -73.7811165
9.086                0.939749356     -73.8976346
9.087                0.939622923     -74.0144656
9.088                 0.93949614     -74.1316105
9.089                0.939369007     -74.2490704
9.09                 0.939241523     -74.3668464
9.091                0.939113687     -74.4849394
9.092                0.938985498     -74.6033507
9.093                0.938856955     -74.7220812
9.094                0.938728058      -74.841132
9.095                0.938598804     -74.9605042
9.096                0.938469194     -75.0801988
9.097                0.938339226      -75.200217
9.098                0.938208899     -75.3205598
9.099                0.938078213     -75.4412284
9.1                  0.937947166     -75.5622237
9.101                0.937815758      -75.683547
9.102                0.937683988     -75.8051992
9.103                0.937551855     -75.9271816
9.104                0.937419357     -76.0494951
9.105                0.937286494     -76.1721409
9.106                0.937153265     -76.2951202
9.107                 0.93701967      -76.418434
9.108                0.936885706     -76.5420834
9.109                0.936751374     -76.6660695
9.11                 0.936616672     -76.7903935
9.111                  0.9364816     -76.9150566
9.112                0.936346157     -77.0400597
9.113                0.936210341     -77.1654041
9.114                0.936074152      -77.291091
9.115                0.935937589     -77.4171213
9.116                0.935800651     -77.5434963
9.117                0.935663338     -77.6702171
9.118                0.935525648     -77.7972849
9.119                 0.93538758     -77.9247007
9.12                 0.935249134     -78.0524659
9.121                 0.93511031     -78.1805814
9.122                0.934971105     -78.3090485
9.123                0.934831519     -78.4378683
9.124                0.934691551     -78.5670421
9.125                0.934551202     -78.6965708
9.126                0.934410469     -78.8264559
9.127                0.934269351     -78.9566983
9.128                0.934127849     -79.0872993
9.129                0.933985961       -79.21826
9.13                 0.933843687     -79.3495817
9.131                0.933701025     -79.4812655
9.132                0.933557976     -79.6133127
9.133                0.933414537     -79.7457243
9.134                0.933270709     -79.8785016
9.135                 0.93312649     -80.0116458
9.136                0.932981881     -80.1451581
9.137                0.932836879     -80.2790397
9.138                0.932691485     -80.4132918
9.139                0.932545698     -80.5479156
9.14                 0.932399516     -80.6829122
9.141                 0.93225294     -80.8182831
9.142                0.932105968     -80.9540292
9.143                  0.9319586     -81.0901519
9.144                0.931810835     -81.2266524
9.145                0.931662672     -81.3635319
9.146                0.931514112     -81.5007916
9.147                0.931365152     -81.6384328
9.148                0.931215793     -81.7764567
9.149                0.931066033     -81.9148645
9.15                 0.930915873     -82.0536574
9.151                0.930765311     -82.1928368
9.152                0.930614347     -82.3324038
9.153                0.930462981     -82.4723597
9.154                0.930311211     -82.6127057
9.155                0.930159037     -82.7534431
9.156                0.930006458     -82.8945731
9.157                0.929853475      -83.036097
9.158                0.929700086     -83.1780161
9.159                0.929546291     -83.3203316
9.16                 0.929392089     -83.4630447
9.161                 0.92923748     -83.6061568
9.162                0.929082463      -83.749669
9.163                0.928927038     -83.8935828
9.164                0.928771205     -84.0378992
9.165                0.928614962     -84.1826197
9.166                0.928458309     -84.3277454
9.167                0.928301247     -84.4732777
9.168                0.928143774     -84.6192179
9.169                0.927985889     -84.7655671
9.17                 0.927827594     -84.9123268
9.171                0.927668887     -85.0594982
9.172                0.927509767     -85.2070825
9.173                0.927350235     -85.3550811
9.174                 0.92719029     -85.5034953
9.175                0.927029932     -85.6523263
9.176                0.926869161     -85.8015754
9.177                0.926707975      -85.951244
9.178                0.926546375     -86.1013334
9.179                0.926384361     -86.2518447
9.18                 0.926221932     -86.4027795
9.181                0.926059088     -86.5541388
9.182                0.925895829     -86.7059242
9.183                0.925732155     -86.8581368
9.184                0.925568065     -87.0107779
9.185                0.925403559      -87.163849
9.186                0.925238637     -87.3173512
9.187                0.925073299     -87.4712859
9.188                0.924907544     -87.6256545
9.189                0.924741373     -87.7804582
9.19                 0.924574786     -87.9356983
9.191                0.924407782     -88.0913762
9.192                0.924240362     -88.2474933
9.193                0.924072525     -88.4040507
9.194                0.923904271     -88.5610498
9.195                  0.9237356      -88.718492
9.196                0.923566513     -88.8763786
9.197                0.923397009     -89.0347109
9.198                0.923227088     -89.1934903
9.199                0.923056751      -89.352718
9.2                  0.922885998     -89.5123953
9.201                0.922714828     -89.6725237
9.202                0.922543242     -89.8331045
9.203                 0.92237124     -89.9941389
9.204                0.922198822     -90.1556283
9.205                0.922025988      -90.317574
9.206                0.921852739     -90.4799775
9.207                0.921679075     -90.6428399
9.208                0.921504996     -90.8061626
9.209                0.921330502     -90.9699471
9.21                 0.921155594     -91.1341945
9.211                0.920980272     -91.2989062
9.212                0.920804537     -91.4640836
9.213                0.920628388      -91.629728
9.214                0.920451826     -91.7958407
9.215                0.920274853     -91.9624231
9.216                0.920097467     -92.1294765
9.217                 0.91991967     -92.2970022
9.218                0.919741462     -92.4650016
9.219                0.919562844      -92.633476
9.22                 0.919383816     -92.8024267
9.221                0.919204379      -92.971855
9.222                0.919024533     -93.1417624
9.223                 0.91884428       -93.31215
9.224                0.918663619     -93.4830193
9.225                0.918482552     -93.6543716
9.226                0.918301079     -93.8262082
9.227                0.918119201     -93.9985304
9.228                0.917936919     -94.1713395
9.229                0.917754234     -94.3446369
9.23                 0.917571146      -94.518424
9.231                0.917387657     -94.6927019
9.232                0.917203767     -94.8674721
9.233                0.917019477     -95.0427359
9.234                0.916834789     -95.2184946
9.235                0.916649703     -95.3947494
9.236                 0.91646422     -95.5715018
9.237                0.916278341      -95.748753
9.238                0.916092068     -95.9265043
9.239                0.915905402     -96.1047571
9.24                 0.915718344     -96.2835126
9.241                0.915530894     -96.4627722
9.242                0.915343055     -96.6425372
9.243                0.915154828     -96.8228088
9.244                0.914966213     -97.0035884
9.245                0.914777213     -97.1848772
9.246                0.914587828     -97.3666766
9.247                0.914398061     -97.5489878
9.248                0.914207912     -97.7318122
9.249                0.914017383     -97.9151509
9.25                 0.913826476     -98.0990054
9.251                0.913635191     -98.2833768
9.252                0.913443532     -98.4682665
9.253                0.913251499     -98.6536756
9.254                0.913059094     -98.8396056
9.255                0.912866319     -99.0260576
9.256                0.912673176      -99.213033
9.257                0.912479666     -99.4005329
9.258                0.912285791     -99.5885586
9.259                0.912091554     -99.7771114
9.26                 0.911896955     -99.9661925
9.261                0.911701998     -100.155803
9.262                0.911506684     -100.345945
9.263                0.911311015     -100.536618
9.264                0.911114993     -100.727825
9.265                0.910918621     -100.919566
9.266                  0.9107219     -101.111843
9.267                0.910524833     -101.304657
9.268                0.910327423     -101.498009
9.269                0.910129671       -101.6919
9.27                 0.909931579     -101.886332
9.271                0.909733151     -102.081305
9.272                0.909534389     -102.276822
9.273                0.909335295     -102.472882
9.274                0.909135872     -102.669488
9.275                0.908936122      -102.86664
9.276                0.908736048      -103.06434
9.277                0.908535653     -103.262588
9.278                0.908334939     -103.461386
9.279                 0.90813391     -103.660736
9.28                 0.907932568     -103.860637
9.281                0.907730916     -104.061092
9.282                0.907528956     -104.262101
9.283                0.907326693     -104.463666
9.284                0.907124129     -104.665788
9.285                0.906921267     -104.868467
9.286                0.906718111     -105.071705
9.287                0.906514663     -105.275503
9.288                0.906310926     -105.479862
9.289                0.906106905     -105.684783
9.29                 0.905902602     -105.890267
9.291                0.905698021     -106.096315
9.292                0.905493165     -106.302929
9.293                0.905288039     -106.510109
9.294                0.905082644     -106.717856
9.295                0.904876986     -106.926171
9.296                0.904671068     -107.135056
9.297                0.904464893     -107.344511
9.298                0.904258465     -107.554538
9.299                0.904051789     -107.765136
9.3                  0.903844867     -107.976308
9.301                0.903637705     -108.188054
9.302                0.903430306     -108.400376
9.303                0.903222674     -108.613273
9.304                0.903014814     -108.826748
9.305                0.902806729       -109.0408
9.306                0.902598424     -109.255432
9.307                0.902389903     -109.470643
9.308                0.902181171     -109.686434
9.309                0.901972231     -109.902808
9.31                  0.90176309     -110.119763
9.311                 0.90155375     -110.337302
9.312                0.901344217     -110.555425
9.313                0.901134496     -110.774133
9.314                0.900924591     -110.993427
9.315                0.900714507     -111.213307
9.316                0.900504248     -111.433774
9.317                0.900293821      -111.65483
9.318                0.900083229     -111.876474
9.319                0.899872479     -112.098708
9.32                 0.899661574     -112.321533
9.321                0.899450521     -112.544948
9.322                0.899239324     -112.768955
9.323                0.899027989     -112.993555
9.324                0.898816522     -113.218748
9.325                0.898604927     -113.444534
9.326                 0.89839321     -113.670915
9.327                0.898181377     -113.897892
9.328                0.897969434     -114.125463
9.329                0.897757386     -114.353632
9.33                 0.897545239     -114.582397
9.331                0.897332998     -114.811759
9.332                0.897120671      -115.04172
9.333                0.896908262     -115.272279
9.334                0.896695778     -115.503438
9.335                0.896483225     -115.735196
9.336                0.896270609     -115.967554
9.337                0.896057937     -116.200512
9.338                0.895845214     -116.434072
9.339                0.895632448     -116.668234
9.34                 0.895419644     -116.902997
9.341                0.895206809     -117.138362
9.342                0.894993949     -117.374331
9.343                0.894781073     -117.610902
9.344                0.894568185     -117.848077
9.345                0.894355293     -118.085855
9.346                0.894142404     -118.324238
9.347                0.893929524     -118.563225
9.348                0.893716662     -118.802817
9.349                0.893503823     -119.043013
9.35                 0.893291015     -119.283815
9.351                0.893078245     -119.525222
9.352                0.892865521     -119.767235
9.353                 0.89265285     -120.009853
9.354                0.892440239     -120.253078
9.355                0.892227695     -120.496908
9.356                0.892015227     -120.741344
9.357                0.891802842     -120.986387
9.358                0.891590547     -121.232036
9.359                0.891378351     -121.478291
9.36                 0.891166261     -121.725153
9.361                0.890954285     -121.972621
9.362                0.890742431     -122.220696
9.363                0.890530708     -122.469377
9.364                0.890319123     -122.718664
9.365                0.890107684     -122.968557
9.366                0.889896399     -123.219056
9.367                0.889685278     -123.470161
9.368                0.889474328     -123.721872
9.369                0.889263558     -123.974189
9.37                 0.889052976     -124.227111
9.371                0.888842592     -124.480638
9.372                0.888632412      -124.73477
9.373                0.888422447     -124.989506
9.374                0.888212705     -125.244847
9.375                0.888003195     -125.500792
9.376                0.887793926      -125.75734
9.377                0.887584907     -126.014492
9.378                0.887376146     -126.272247
9.379                0.887167653     -126.530604
9.38                 0.886959438     -126.789562
9.381                0.886751508     -127.049123
9.382                0.886543875     -127.309284
9.383                0.886336546     -127.570045
9.384                0.886129532     -127.831407
9.385                0.885922841     -128.093367
9.386                0.885716484     -128.355926
9.387                 0.88551047     -128.619084
9.388                0.885304809     -128.882838
9.389                 0.88509951     -129.147189
9.39                 0.884894583     -129.412136
9.391                0.884690038     -129.677677
9.392                0.884485885     -129.943813
9.393                0.884282134     -130.210543
9.394                0.884078795     -130.477865
9.395                0.883875878     -130.745779
9.396                0.883673393     -131.014283
9.397                 0.88347135     -131.283377
9.398                 0.88326976     -131.553061
9.399                0.883068632     -131.823332
9.4                  0.882867977     -132.094189
9.401                0.882667806     -132.365633
9.402                0.882468129     -132.637661
9.403                0.882268956     -132.910273
9.404                0.882070298     -133.183467
9.405                0.881872166     -133.457242
9.406                0.881674569     -133.731597
9.407                 0.88147752     -134.006531
9.408                0.881281028     -134.282043
9.409                0.881085104      -134.55813
9.41                  0.88088976     -134.834792
9.411                0.880695005     -135.112028
9.412                0.880500851     -135.389835
9.413                 0.88030731     -135.668213
9.414                 0.88011439      -135.94716
9.415                0.879922105     -136.226674
9.416                0.879730465     -136.506754
9.417                 0.87953948     -136.787399
9.418                0.879349162     -137.068607
9.419                0.879159523     -137.350375
9.42                 0.878970573     -137.632703
9.421                0.878782324     -137.915589
9.422                0.878594786      -138.19903
9.423                0.878407972     -138.483026
9.424                0.878221892     -138.767574
9.425                0.878036558     -139.052672
9.426                0.877851981     -139.338319
9.427                0.877668172     -139.624513
9.428                0.877485143     -139.911252
9.429                0.877302906     -140.198533
9.43                 0.877121472     -140.486355
9.431                0.876940852     -140.774715
9.432                0.876761058     -141.063612
9.433                  0.8765821     -141.353043
9.434                0.876403992     -141.643007
9.435                0.876226744       -141.9335
9.436                0.876050368     -142.224522
9.437                0.875874876     -142.516068
9.438                0.875700278     -142.808138
9.439                0.875526587     -143.100729
9.44                 0.875353814     -143.393838
9.441                0.875181971     -143.687463
9.442                0.875011069     -143.981602
9.443                 0.87484112     -144.276252
9.444                0.874672135      -144.57141
9.445                0.874504126     -144.867074
9.446                0.874337105     -145.163242
9.447                0.874171084      -145.45991
9.448                0.874006072     -145.757077
9.449                0.873842084     -146.054738
9.45                 0.873679129     -146.352893
9.451                0.873517219     -146.651537
9.452                0.873356366     -146.950668
9.453                0.873196582     -147.250283
9.454                0.873037878      -147.55038
9.455                0.872880265     -147.850954
9.456                0.872723755     -148.152005
9.457                0.872568359     -148.453527
9.458                0.872414088     -148.755519
9.459                0.872260955     -149.057977
9.46                  0.87210897     -149.360899
9.461                0.871958144      -149.66428
9.462                 0.87180849     -149.968118
9.463                0.871660018      -150.27241
9.464                0.871512739     -150.577152
9.465                0.871366664     -150.882341
9.466                0.871221806     -151.187974
9.467                0.871078174     -151.494047
9.468                 0.87093578     -151.800558
9.469                0.870794635     -152.107502
9.47                  0.87065475     -152.414876
9.471                0.870516136     -152.722677
9.472                0.870378803     -153.030901
9.473                0.870242763     -153.339544
9.474                0.870108026     -153.648603
9.475                0.869974603     -153.958075
9.476                0.869842504     -154.267955
9.477                0.869711741     -154.578241
9.478                0.869582323     -154.888927
9.479                0.869454261     -155.200011
9.48                 0.869327566     -155.511489
9.481                0.869202248     -155.823356
9.482                0.869078316     -156.135609
9.483                0.868955783     -156.448244
9.484                0.868834656     -156.761258
9.485                0.868714947     -157.074645
9.486                0.868596665     -157.388403
9.487                0.868479821     -157.702527
9.488                0.868364424     -158.017012
9.489                0.868250483     -158.331856
9.49                 0.868138009     -158.647054
9.491                0.868027011     -158.962601
9.492                0.867917498     -159.278493
9.493                 0.86780948     -159.594727
9.494                0.867702966     -159.911298
9.495                0.867597966     -160.228201
9.496                0.867494488     -160.545433
9.497                0.867392541     -160.862989
9.498                0.867292134     -161.180865
9.499                0.867193277     -161.499056
9.5                  0.867095977     -161.817558
9.501                0.867000243     -162.136366
9.502                0.866906084     -162.455476
9.503                0.866813509     -162.774884
9.504                0.866722524     -163.094585
9.505                 0.86663314     -163.414573
9.506                0.866545362     -163.734846
9.507                0.866459201     -164.055398
9.508                0.866374662     -164.376224
9.509                0.866291755      -164.69732
9.51                 0.866210485     -165.018681
9.511                0.866130862     -165.340302
9.512                0.866052893      -165.66218
9.513                0.865976583     -165.984308
9.514                0.865901941     -166.306682
9.515                0.865828974     -166.629297
9.516                0.865757688     -166.952149
9.517                0.865688089     -167.275233
9.518                0.865620186     -167.598543
9.519                0.865553983     -167.922075
9.52                 0.865489487     -168.245824
9.521                0.865426705     -168.569785
9.522                0.865365642     -168.893953
9.523                0.865306304     -169.218323
9.524                0.865248697     -169.542889
9.525                0.865192826     -169.867648
9.526                0.865138697     -170.192594
9.527                0.865086316     -170.517722
9.528                0.865035686     -170.843026
9.529                0.864986814     -171.168502
9.53                 0.864939705     -171.494145
9.531                0.864894362     -171.819949
9.532                 0.86485079      -172.14591
9.533                0.864808995     -172.472022
9.534                0.864768979     -172.798279
9.535                0.864730748     -173.124678
9.536                0.864694305     -173.451212
9.537                0.864659653     -173.777877
9.538                0.864626797     -174.104666
9.539                0.864595741     -174.431576
9.54                 0.864566486     -174.758601
9.541                0.864539037     -175.085734
9.542                0.864513396     -175.412972
9.543                0.864489567     -175.740309
9.544                0.864467552      -176.06774
9.545                0.864447353     -176.395258
9.546                0.864428973      -176.72286
9.547                0.864412414     -177.050539
9.548                0.864397678     -177.378291
9.549                0.864384767      -177.70611
9.55                 0.864373683      -178.03399
9.551                0.864364427     -178.361926
9.552                0.864357001     -178.689914
9.553                0.864351405     -179.017947
9.554                0.864347641     -179.346021
9.555                 0.86434571     -179.674129
9.556                0.864345612      179.997733
9.557                0.864347349      179.669571
9.558                0.864350919       179.34139
9.559                0.864356325      179.013196
9.56                 0.864363564      178.684994
9.561                0.864372639      178.356789
9.562                0.864383547      178.028587
9.563                 0.86439629      177.700393
9.564                0.864410865      177.372213
9.565                0.864427273      177.044051
9.566                0.864445512      176.715913
9.567                0.864465582      176.387806
9.568                0.864487481      176.059733
9.569                0.864511207        175.7317
9.57                 0.864536759      175.403713
9.571                0.864564136      175.075777
9.572                0.864593334      174.747898
9.573                0.864624354       174.42008
9.574                 0.86465719      174.092329
9.575                0.864691843      173.764651
9.576                0.864728308       173.43705
9.577                0.864766584      173.109533
9.578                0.864806667      172.782103
9.579                0.864848554      172.454767
9.58                 0.864892242      172.127531
9.581                0.864937727      171.800398
9.582                0.864985007      171.473375
9.583                0.865034077      171.146466
9.584                0.865084933      170.819678
9.585                0.865137572      170.493014
9.586                0.865191989      170.166481
9.587                0.865248181      169.840084
9.588                0.865306141      169.513827
9.589                0.865365867      169.187717
9.59                 0.865427352      168.861757
9.591                0.865490593      168.535954
9.592                0.865555583      168.210312
9.593                0.865622319      167.884837
9.594                0.865690794      167.559533
9.595                0.865761003      167.234406
9.596                 0.86583294      166.909461
9.597                0.865906599      166.584703
9.598                0.865981976      166.260136
9.599                0.866059062      165.935767
9.6                  0.866137853      165.611599
9.601                0.866218341      165.287638