! TOUCHSTONE file generated by CST DESIGN STUDIO
! Date and time: Wed Feb  5 13:38:25 2025
! Project name: C:\Work\MatlabApps\UnitCellOptimizationMatlab\CST\unitcell.cst
! Tree item: Tasks\Sweep1\SPara1\S-Parameters
! Header version: 2024
! Port assignment regex: !\s*Touchstone port\s*([0-9]+)\s*=\s*(CST MWS port|CST DES external port|CST DES block port)\s*(.+)\s* \(\"(.*)\"\)(\s*mode\s*([0-9]+))?.*
! Touchstone port assignment:
! Touchstone port 1 = CST DES external port 1 ("")
# GHz S MA R 50
9                    0.966926746     -50.0050783
9.001                0.966867829     -50.0683915
9.002                0.966808734     -50.1318371
9.003                0.966749461     -50.1954157
9.004                0.966690008     -50.2591274
9.005                0.966630377     -50.3229729
9.006                0.966570566     -50.3869525
9.007                0.966510574     -50.4510666
9.008                  0.9664504     -50.5153155
9.009                0.966390045     -50.5796998
9.01                 0.966329508     -50.6442198
9.011                0.966268787      -50.708876
9.012                0.966207883     -50.7736687
9.013                0.966146794     -50.8385984
9.014                0.966085521     -50.9036655
9.015                0.966024062     -50.9688704
9.016                0.965962417     -51.0342136
9.017                0.965900585     -51.0996954
9.018                0.965838566     -51.1653163
9.019                0.965776359     -51.2310767
9.02                 0.965713963     -51.2969771
9.021                0.965651377     -51.3630178
9.022                0.965588602     -51.4291993
9.023                0.965525637     -51.4955221
9.024                 0.96546248     -51.5619865
9.025                0.965399131      -51.628593
9.026                0.965335589     -51.6953421
9.027                0.965271855     -51.7622341
9.028                0.965207927     -51.8292696
9.029                0.965143804     -51.8964489
9.03                 0.965079486     -51.9637725
9.031                0.965014973     -52.0312409
9.032                0.964950263     -52.0988545
9.033                0.964885356     -52.1666137
9.034                0.964820251     -52.2345191
9.035                0.964754948     -52.3025709
9.036                0.964689445     -52.3707698
9.037                0.964623743     -52.4391161
9.038                0.964557841     -52.5076104
9.039                0.964491737      -52.576253
9.04                 0.964425432     -52.6450445
9.041                0.964358924     -52.7139852
9.042                0.964292213     -52.7830757
9.043                0.964225298     -52.8523164
9.044                0.964158179     -52.9217079
9.045                0.964090854     -52.9912504
9.046                0.964023324     -53.0609446
9.047                0.963955587     -53.1307909
9.048                0.963887642     -53.2007898
9.049                 0.96381949     -53.2709418
9.05                 0.963751129     -53.3412472
9.051                0.963682559     -53.4117067
9.052                0.963613778     -53.4823206
9.053                0.963544787     -53.5530896
9.054                0.963475585     -53.6240139
9.055                 0.96340617     -53.6950943
9.056                0.963336542      -53.766331
9.057                  0.9632667     -53.8377247
9.058                0.963196644     -53.9092757
9.059                0.963126373     -53.9809847
9.06                 0.963055886     -54.0528521
9.061                0.962985183     -54.1248784
9.062                0.962914262      -54.197064
9.063                0.962843124     -54.2694096
9.064                0.962771766     -54.3419155
9.065                 0.96270019     -54.4145823
9.066                0.962628392     -54.4874106
9.067                0.962556374     -54.5604008
9.068                0.962484135     -54.6335533
9.069                0.962411672     -54.7068689
9.07                 0.962338987     -54.7803478
9.071                0.962266078     -54.8539907
9.072                0.962192944     -54.9277982
9.073                0.962119584     -55.0017706
9.074                0.962045999     -55.0759085
9.075                0.961972186     -55.1502124
9.076                0.961898146      -55.224683
9.077                0.961823877     -55.2993206
9.078                0.961749378     -55.3741259
9.079                 0.96167465     -55.4490993
9.08                 0.961599691     -55.5242413
9.081                0.961524501     -55.5995526
9.082                0.961449078     -55.6750337
9.083                0.961373422     -55.7506851
9.084                0.961297532     -55.8265072
9.085                0.961221407     -55.9025008
9.086                0.961145047     -55.9786663
9.087                 0.96106845     -56.0550043
9.088                0.960991617     -56.1315152
9.089                0.960914545     -56.2081998
9.09                 0.960837235     -56.2850584
9.091                0.960759686     -56.3620917
9.092                0.960681896     -56.4393003
9.093                0.960603865     -56.5166846
9.094                0.960525592     -56.5942453
9.095                0.960447077     -56.6719829
9.096                0.960368318     -56.7498979
9.097                0.960289315      -56.827991
9.098                0.960210066     -56.9062627
9.099                0.960130572     -56.9847136
9.1                  0.960050831     -57.0633443
9.101                0.959970842     -57.1421552
9.102                0.959890605     -57.2211471
9.103                0.959810119     -57.3003204
9.104                0.959729383     -57.3796759
9.105                0.959648396     -57.4592139
9.106                0.959567157     -57.5389352
9.107                0.959485665     -57.6188403
9.108                 0.95940392     -57.6989298
9.109                0.959321921     -57.7792043
9.11                 0.959239667     -57.8596644
9.111                0.959157156     -57.9403107
9.112                0.959074389     -58.0211438
9.113                0.958991365     -58.1021643
9.114                0.958908082     -58.1833727
9.115                0.958824539     -58.2647698
9.116                0.958740737      -58.346356
9.117                0.958656673     -58.4281321
9.118                0.958572347     -58.5100986
9.119                0.958487759     -58.5922561
9.12                 0.958402906     -58.6746053
9.121                 0.95831779     -58.7571467
9.122                0.958232408     -58.8398811
9.123                0.958146759     -58.9228089
9.124                0.958060844     -59.0059309
9.125                 0.95797466     -59.0892476
9.126                0.957888208     -59.1727598
9.127                0.957801486     -59.2564679
9.128                0.957714493     -59.3403727
9.129                0.957627228     -59.4244749
9.13                 0.957539691     -59.5087749
9.131                0.957451881     -59.5932735
9.132                0.957363796     -59.6779714
9.133                0.957275436      -59.762869
9.134                0.957186801     -59.8479672
9.135                0.957097888     -59.9332666
9.136                0.957008697     -60.0187678
9.137                0.956919228     -60.1044714
9.138                0.956829479     -60.1903782
9.139                0.956739449     -60.2764887
9.14                 0.956649138     -60.3628037
9.141                0.956558545     -60.4493238
9.142                0.956467668     -60.5360496
9.143                0.956376507     -60.6229819
9.144                0.956285061     -60.7101214
9.145                0.956193328     -60.7974686
9.146                0.956101309     -60.8850242
9.147                0.956009002      -60.972789
9.148                0.955916406     -61.0607637
9.149                 0.95582352     -61.1489488
9.15                 0.955730343     -61.2373451
9.151                0.955636875     -61.3259533
9.152                0.955543114     -61.4147741
9.153                0.955449059     -61.5038082
9.154                 0.95535471     -61.5930562
9.155                0.955260066     -61.6825188
9.156                0.955165125     -61.7721968
9.157                0.955069887     -61.8620909
9.158                0.954974351     -61.9522017
9.159                0.954878515     -62.0425301
9.16                  0.95478238     -62.1330766
9.161                0.954685943      -62.223842
9.162                0.954589204      -62.314827
9.163                0.954492162     -62.4060323
9.164                0.954394816     -62.4974587
9.165                0.954297165     -62.5891069
9.166                0.954199208     -62.6809775
9.167                0.954100944     -62.7730714
9.168                0.954002373     -62.8653893
9.169                0.953903492     -62.9579318
9.17                 0.953804302     -63.0506998
9.171                0.953704801     -63.1436939
9.172                0.953604988      -63.236915
9.173                0.953504862     -63.3303637
9.174                0.953404423     -63.4240408
9.175                0.953303669      -63.517947
9.176                  0.9532026     -63.6120831
9.177                0.953101213     -63.7064499
9.178                 0.95299951     -63.8010481
9.179                0.952897487     -63.8958785
9.18                 0.952795145     -63.9909418
9.181                0.952692482     -64.0862388
9.182                0.952589498     -64.1817703
9.183                0.952486191      -64.277537
9.184                0.952382561     -64.3735397
9.185                0.952278606     -64.4697791
9.186                0.952174326     -64.5662562
9.187                0.952069719     -64.6629716
9.188                0.951964784     -64.7599261
9.189                0.951859521     -64.8571205
9.19                 0.951753928     -64.9545556
9.191                0.951648005     -65.0522322
9.192                0.951541751      -65.150151
9.193                0.951435163      -65.248313
9.194                0.951328242     -65.3467188
9.195                0.951220987     -65.4453694
9.196                0.951113396     -65.5442654
9.197                0.951005469     -65.6434077
9.198                0.950897204     -65.7427971
9.199                  0.9507886     -65.8424344
9.2                  0.950679657     -65.9423205
9.201                0.950570373     -66.0424561
9.202                0.950460747     -66.1428421
9.203                0.950350779     -66.2434793
9.204                0.950240467     -66.3443685
9.205                0.950129811     -66.4455106
9.206                0.950018809     -66.5469064
9.207                 0.94990746     -66.6485567
9.208                0.949795764     -66.7504623
9.209                0.949683718     -66.8526242
9.21                 0.949571323     -66.9550431
9.211                0.949458578     -67.0577199
9.212                 0.94934548     -67.1606555
9.213                 0.94923203     -67.2638506
9.214                0.949118226     -67.3673063
9.215                0.949004067     -67.4710232
9.216                0.948889552     -67.5750023
9.217                0.948774681     -67.6792444
9.218                0.948659451     -67.7837504
9.219                0.948543863     -67.8885212
9.22                 0.948427915     -67.9935577
9.221                0.948311605     -68.0988607
9.222                0.948194934      -68.204431
9.223                  0.9480779     -68.3102697
9.224                0.947960502     -68.4163775
9.225                0.947842739     -68.5227553
9.226                0.947724609     -68.6294041
9.227                0.947606113     -68.7363248
9.228                0.947487249     -68.8435181
9.229                0.947368016     -68.9509851
9.23                 0.947248412     -69.0587266
9.231                0.947128437     -69.1667435
9.232                0.947008091     -69.2750368
9.233                0.946887371     -69.3836073
9.234                0.946766277      -69.492456
9.235                0.946644808     -69.6015837
9.236                0.946522962     -69.7109914
9.237                 0.94640074     -69.8206801
9.238                0.946278139     -69.9306506
9.239                0.946155159     -70.0409038
9.24                 0.946031799     -70.1514408
9.241                0.945908058     -70.2622624
9.242                0.945783934     -70.3733695
9.243                0.945659427     -70.4847631
9.244                0.945534536     -70.5964442
9.245                 0.94540926     -70.7084137
9.246                0.945283598     -70.8206725
9.247                0.945157548     -70.9332216
9.248                 0.94503111     -71.0460619
9.249                0.944904283     -71.1591944
9.25                 0.944777065     -71.2726201
9.251                0.944649457     -71.3863399
9.252                0.944521456     -71.5003548
9.253                0.944393062     -71.6146657
9.254                0.944264274     -71.7292737
9.255                0.944135091     -71.8441796
9.256                0.944005511     -71.9593846
9.257                0.943875535     -72.0748894
9.258                 0.94374516     -72.1906952
9.259                0.943614386     -72.3068029
9.26                 0.943483213     -72.4232136
9.261                0.943351638     -72.5399281
9.262                0.943219662     -72.6569475
9.263                0.943087282     -72.7742728
9.264                0.942954499      -72.891905
9.265                0.942821311     -73.0098451
9.266                0.942687717     -73.1280941
9.267                0.942553716      -73.246653
9.268                0.942419308     -73.3655228
9.269                0.942284491     -73.4847045
9.27                 0.942149264     -73.6041992
9.271                0.942013627     -73.7240079
9.272                0.941877579     -73.8441315
9.273                0.941741118     -73.9645712
9.274                0.941604244     -74.0853279
9.275                0.941466956     -74.2064027
9.276                0.941329253     -74.3277966
9.277                0.941191134     -74.4495107
9.278                0.941052598     -74.5715459
9.279                0.940913644     -74.6939034
9.28                 0.940774271     -74.8165842
9.281                0.940634479     -74.9395893
9.282                0.940494266     -75.0629198
9.283                0.940353632     -75.1865767
9.284                0.940212575     -75.3105611
9.285                0.940071096     -75.4348741
9.286                0.939929192     -75.5595167
9.287                0.939786864     -75.6844899
9.288                 0.93964411      -75.809795
9.289                0.939500929     -75.9354328
9.29                 0.939357321     -76.0614045
9.291                0.939213285     -76.1877112
9.292                 0.93906882      -76.314354
9.293                0.938923925     -76.4413339
9.294                0.938778599      -76.568652
9.295                0.938632841     -76.6963094
9.296                0.938486652     -76.8243073
9.297                0.938340029     -76.9526466
9.298                0.938192972     -77.0813285
9.299                 0.93804548     -77.2103541
9.3                  0.937897553     -77.3397245
9.301                 0.93774919     -77.4694407
9.302                 0.93760039      -77.599504
9.303                0.937451152     -77.7299154
9.304                0.937301475      -77.860676
9.305                 0.93715136     -77.9917869
9.306                0.937000804     -78.1232493
9.307                0.936849807     -78.2550643
9.308                0.936698369      -78.387233
9.309                0.936546489     -78.5197564
9.31                 0.936394166     -78.6526359
9.311                  0.9362414     -78.7858724
9.312                0.936088189     -78.9194671
9.313                0.935934533     -79.0534212
9.314                0.935780432     -79.1877357
9.315                0.935625885     -79.3224119
9.316                0.935470891     -79.4574508
9.317                0.935315449     -79.5928537
9.318                0.935159559     -79.7286216
9.319                0.935003221     -79.8647557
9.32                 0.934846433     -80.0012571
9.321                0.934689195     -80.1381271
9.322                0.934531507     -80.2753668
9.323                0.934373367     -80.4129773
9.324                0.934214777     -80.5509598
9.325                0.934055733     -80.6893154
9.326                0.933896238     -80.8280454
9.327                0.933736289     -80.9671508
9.328                0.933575886      -81.106633
9.329                0.933415029     -81.2464929
9.33                 0.933253717     -81.3867319
9.331                 0.93309195     -81.5273511
9.332                0.932929727     -81.6683516
9.333                0.932767048     -81.8097347
9.334                0.932603913     -81.9515015
9.335                 0.93244032     -82.0936532
9.336                 0.93227627      -82.236191
9.337                0.932111763     -82.3791162
9.338                0.931946797     -82.5224298
9.339                0.931781372     -82.6661331
9.34                 0.931615489     -82.8102273
9.341                0.931449146     -82.9547135
9.342                0.931282344     -83.0995931
9.343                0.931115081     -83.2448671
9.344                0.930947359     -83.3905368
9.345                0.930779176     -83.5366033
9.346                0.930610532      -83.683068
9.347                0.930441428      -83.829932
9.348                0.930271862     -83.9771964
9.349                0.930101834     -84.1248626
9.35                 0.929931345     -84.2729318
9.351                0.929760394     -84.4214051
9.352                0.929588981     -84.5702837
9.353                0.929417106      -84.719569
9.354                0.929244768      -84.869262
9.355                0.929071968     -85.0193641
9.356                0.928898705     -85.1698764
9.357                 0.92872498     -85.3208002
9.358                0.928550792     -85.4721367
9.359                0.928376142     -85.6238871
9.36                 0.928201029     -85.7760527
9.361                0.928025452     -85.9286346
9.362                0.927849414     -86.0816342
9.363                0.927672912     -86.2350526
9.364                0.927495948     -86.3888911
9.365                0.927318521     -86.5431509
9.366                0.927140632     -86.6978333
9.367                 0.92696228     -86.8529394
9.368                0.926783466     -87.0084706
9.369                0.926604191      -87.164428
9.37                 0.926424453     -87.3208129
9.371                0.926244253     -87.4776266
9.372                0.926063592     -87.6348702
9.373                 0.92588247      -87.792545
9.374                0.925700887     -87.9506523
9.375                0.925518843     -88.1091934
9.376                0.925336339     -88.2681693
9.377                0.925153374     -88.4275814
9.378                 0.92496995      -88.587431
9.379                0.924786067     -88.7477192
9.38                 0.924601725     -88.9084474
9.381                0.924416925     -89.0696167
9.382                0.924231666     -89.2312284
9.383                 0.92404595     -89.3932838
9.384                0.923859777     -89.5557841
9.385                0.923673148     -89.7187306
9.386                0.923486063     -89.8821244
9.387                0.923298522     -90.0459668
9.388                0.923110527     -90.2102592
9.389                0.922922078     -90.3750027
9.39                 0.922733176     -90.5401985
9.391                0.922543821      -90.705848
9.392                0.922354014     -90.8719523
9.393                0.922163755     -91.0385128
9.394                0.921973047     -91.2055305
9.395                0.921781889     -91.3730069
9.396                0.921590282     -91.5409432
9.397                0.921398227     -91.7093405
9.398                0.921205726     -91.8782001
9.399                0.921012778     -92.0475233
9.4                  0.920819385     -92.2173113
9.401                0.920625549     -92.3875653
9.402                0.920431269     -92.5582866
9.403                0.920236548     -92.7294764
9.404                0.920041385      -92.901136
9.405                0.919845783     -93.0732665
9.406                0.919649742     -93.2458693
9.407                0.919453264     -93.4189455
9.408                 0.91925635     -93.5924964
9.409                0.919059001     -93.7665232
9.41                 0.918861218     -93.9410272
9.411                0.918663004     -94.1160095
9.412                0.918464358     -94.2914714
9.413                0.918265282     -94.4674141
9.414                0.918065779     -94.6438388
9.415                0.917865849     -94.8207468
9.416                0.917665494     -94.9981392
9.417                0.917464716     -95.1760173
9.418                0.917263515     -95.3543823
9.419                0.917061894     -95.5332354
9.42                 0.916859855     -95.7125778
9.421                0.916657398     -95.8924107
9.422                0.916454527     -96.0727353
9.423                0.916251241     -96.2535528
9.424                0.916047545     -96.4348644
9.425                0.915843438     -96.6166713
9.426                0.915638923     -96.7989747
9.427                0.915434003     -96.9817757
9.428                0.915228679     -97.1650756
9.429                0.915022952     -97.3488756
9.43                 0.914816826     -97.5331767
9.431                0.914610302     -97.7179803
9.432                0.914403382     -97.9032874
9.433                0.914196069     -98.0890992
9.434                0.913988364     -98.2754169
9.435                0.913780271     -98.4622416
9.436                0.913571791     -98.6495746
9.437                0.913362926     -98.8374169
9.438                 0.91315368     -99.0257697
9.439                0.912944054     -99.2146341
9.44                 0.912734052     -99.4040113
9.441                0.912523675     -99.5939024
9.442                0.912312926     -99.7843085
9.443                0.912101808     -99.9752308
9.444                0.911890324      -100.16667
9.445                0.911678476     -100.358628
9.446                0.911466267     -100.551106
9.447                0.911253699     -100.744104
9.448                0.911040777     -100.937624
9.449                0.910827502     -101.131666
9.45                 0.910613878     -101.326233
9.451                0.910399908     -101.521324
9.452                0.910185594     -101.716941
9.453                0.909970941     -101.913086
9.454                 0.90975595     -102.109759
9.455                0.909540626     -102.306961
9.456                0.909324971     -102.504693
9.457                0.909108989     -102.702956
9.458                0.908892684     -102.901752
9.459                0.908676058     -103.101081
9.46                 0.908459116     -103.300945
9.461                 0.90824186     -103.501344
9.462                0.908024295      -103.70228
9.463                0.907806424     -103.903752
9.464                0.907588251     -104.105764
9.465                0.907369779     -104.308315
9.466                0.907151013     -104.511406
9.467                0.906931956     -104.715038
9.468                0.906712612     -104.919213
9.469                0.906492985     -105.123931
9.47                 0.906273079     -105.329194
9.471                0.906052899     -105.535001
9.472                0.905832448     -105.741355
9.473                0.905611731     -105.948255
9.474                0.905390752     -106.155704
9.475                0.905169515     -106.363701
9.476                0.904948025     -106.572248
9.477                0.904726287     -106.781346
9.478                0.904504304     -106.990995
9.479                0.904282081     -107.201197
9.48                 0.904059623     -107.411951
9.481                0.903836935      -107.62326
9.482                0.903614021     -107.835124
9.483                0.903390886     -108.047543
9.484                0.903167536     -108.260519
9.485                0.902943974     -108.474052
9.486                0.902720207     -108.688144
9.487                0.902496238     -108.902794
9.488                0.902272074     -109.118004
9.489                 0.90204772     -109.333774
9.49                  0.90182318     -109.550105
9.491                 0.90159846     -109.766999
9.492                0.901373565     -109.984455
9.493                0.901148502     -110.202474
9.494                0.900923275     -110.421057
9.495                0.900697889     -110.640205
9.496                0.900472352     -110.859919
9.497                0.900246668     -111.080198
9.498                0.900020843     -111.301045
9.499                0.899794882     -111.522458
9.5                  0.899568793      -111.74444
9.501                0.899342581      -111.96699
9.502                0.899116251     -112.190109
9.503                0.898889811     -112.413798
9.504                0.898663265     -112.638058
9.505                0.898436621     -112.862888
9.506                0.898209885     -113.088289
9.507                0.897983063     -113.314263
9.508                0.897756162     -113.540809
9.509                0.897529187     -113.767928
9.51                 0.897302147      -113.99562
9.511                0.897075046     -114.223887
9.512                0.896847893     -114.452727
9.513                0.896620693     -114.682143
9.514                0.896393454     -114.912133
9.515                0.896166183     -115.142699
9.516                0.895938886     -115.373841
9.517                0.895711571      -115.60556
9.518                0.895484245     -115.837855
9.519                0.895256914     -116.070727
9.52                 0.895029587     -116.304176
9.521                0.894802271     -116.538204
9.522                0.894574972     -116.772809
9.523                0.894347699     -117.007992
9.524                0.894120459     -117.243754
9.525                 0.89389326     -117.480094
9.526                0.893666109     -117.717013
9.527                0.893439014     -117.954511
9.528                0.893211983     -118.192589
9.529                0.892985023     -118.431246
9.53                 0.892758144     -118.670482
9.531                0.892531352     -118.910298
9.532                0.892304656     -119.150694
9.533                0.892078064      -119.39167
9.534                0.891851584     -119.633225
9.535                0.891625225     -119.875361
9.536                0.891398994     -120.118076
9.537                0.891172901     -120.361371
9.538                0.890946954     -120.605247
9.539                0.890721162     -120.849702
9.54                 0.890495532     -121.094737
9.541                0.890270074     -121.340351
9.542                0.890044797     -121.586546
9.543                0.889819709     -121.833319
9.544                 0.88959482     -122.080672
9.545                0.889370138     -122.328604
9.546                0.889145672     -122.577116
9.547                0.888921431     -122.826205
9.548                0.888697426     -123.075874
9.549                0.888473664      -123.32612
9.55                 0.888250155     -123.576945
9.551                0.888026909     -123.828347
9.552                0.887803934     -124.080326
9.553                0.887581242     -124.332883
9.554                 0.88735884     -124.586016
9.555                0.887136739     -124.839725
9.556                0.886914948      -125.09401
9.557                0.886693478      -125.34887
9.558                0.886472337     -125.604304
9.559                0.886251536     -125.860313
9.56                 0.886031085     -126.116896
9.561                0.885810994     -126.374052
9.562                0.885591272     -126.631781
9.563                 0.88537193     -126.890082
9.564                0.885152979     -127.148954
9.565                0.884934427     -127.408396
9.566                0.884716286     -127.668409
9.567                0.884498567     -127.928991
9.568                0.884281278     -128.190142
9.569                0.884064431      -128.45186
9.57                 0.883848037     -128.714146
9.571                0.883632105     -128.976998
9.572                0.883416647     -129.240415
9.573                0.883201673     -129.504396
9.574                0.882987194     -129.768942
9.575                0.882773221     -130.034049
9.576                0.882559764     -130.299719
9.577                0.882346835     -130.565949
9.578                0.882134444     -130.832739
9.579                0.881922602     -131.100088
9.58                  0.88171132     -131.367994
9.581                 0.88150061     -131.636457
9.582                0.881290483     -131.905475
9.583                0.881080949     -132.175047
9.584                0.880872019     -132.445172
9.585                0.880663706      -132.71585
9.586                0.880456021     -132.987077
9.587                0.880248974     -133.258854
9.588                0.880042577     -133.531179
9.589                0.879836842     -133.804051
9.59                 0.879631779     -134.077468
9.591                0.879427401     -134.351428
9.592                0.879223719     -134.625931
9.593                0.879020744     -134.900976
9.594                0.878818489     -135.176559
9.595                0.878616964     -135.452681
9.596                0.878416182     -135.729339
9.597                0.878216153     -136.006532
9.598                 0.87801689     -136.284258
9.599                0.877818405     -136.562516
9.6                  0.877620709     -136.841303
9.601                0.877423814     -137.120619