! TOUCHSTONE file generated by CST DESIGN STUDIO
! Date and time: Tue Feb  4 14:24:19 2025
! Project name: C:\Work\MatlabApps\UnitCellOptimizationMatlab\CST\unitcell.cst
! Tree item: Tasks\Sweep1\SPara1\S-Parameters
! Header version: 2024
! Port assignment regex: !\s*Touchstone port\s*([0-9]+)\s*=\s*(CST MWS port|CST DES external port|CST DES block port)\s*(.+)\s* \(\"(.*)\"\)(\s*mode\s*([0-9]+))?.*
! Touchstone port assignment:
! Touchstone port 1 = CST DES external port 1 ("")
# GHz S MA R 50
9                    0.990654591     -69.9753561
9.001                0.990634392     -70.0758471
9.002                0.990614133     -70.1765763
9.003                0.990593812     -70.2775445
9.004                 0.99057343     -70.3787523
9.005                0.990552988     -70.4802005
9.006                0.990532484     -70.5818898
9.007                0.990511918     -70.6838209
9.008                0.990491291     -70.7859946
9.009                0.990470602     -70.8884115
9.01                 0.990449851     -70.9910725
9.011                0.990429038     -71.0939782
9.012                0.990408163     -71.1971294
9.013                0.990387226     -71.3005268
9.014                0.990366226     -71.4041712
9.015                0.990345163     -71.5080632
9.016                0.990324037     -71.6122037
9.017                0.990302848     -71.7165934
9.018                0.990281597      -71.821233
9.019                0.990260281     -71.9261233
9.02                 0.990238903     -72.0312651
9.021                 0.99021746      -72.136659
9.022                0.990195954     -72.2423059
9.023                0.990174384     -72.3482065
9.024                 0.99015275     -72.4543615
9.025                0.990131051     -72.5607718
9.026                0.990109288     -72.6674381
9.027                0.990087461     -72.7743611
9.028                0.990065568     -72.8815416
9.029                0.990043611     -72.9889804
9.03                 0.990021589     -73.0966783
9.031                0.989999502     -73.2046361
9.032                0.989977349     -73.3128544
9.033                0.989955131     -73.4213342
9.034                0.989932847     -73.5300761
9.035                0.989910497     -73.6390809
9.036                0.989888081     -73.7483495
9.037                0.989865599     -73.8578827
9.038                0.989843051     -73.9676811
9.039                0.989820437     -74.0777456
9.04                 0.989797756     -74.1880771
9.041                0.989775008     -74.2986762
9.042                0.989752194     -74.4095438
9.043                0.989729312     -74.5206807
9.044                0.989706363     -74.6320877
9.045                0.989683347     -74.7437655
9.046                0.989660264     -74.8557151
9.047                0.989637112     -74.9679371
9.048                0.989613894     -75.0804325
9.049                0.989590607     -75.1932019
9.05                 0.989567252     -75.3062463
9.051                0.989543829     -75.4195664
9.052                0.989520338     -75.5331631
9.053                0.989496778     -75.6470372
9.054                0.989473149     -75.7611894
9.055                0.989449452     -75.8756207
9.056                0.989425686     -75.9903317
9.057                0.989401851     -76.1053235
9.058                0.989377947     -76.2205967
9.059                0.989353973     -76.3361523
9.06                  0.98932993      -76.451991
9.061                0.989305817     -76.5681137
9.062                0.989281635     -76.6845212
9.063                0.989257382     -76.8012144
9.064                 0.98923306     -76.9181941
9.065                0.989208667     -77.0354611
9.066                0.989184204     -77.1530162
9.067                0.989159671     -77.2708605
9.068                0.989135067     -77.3889945
9.069                0.989110393     -77.5074193
9.07                 0.989085648     -77.6261357
9.071                0.989060831     -77.7451444
9.072                0.989035944     -77.8644465
9.073                0.989010985     -77.9840426
9.074                0.988985955     -78.1039338
9.075                0.988960854     -78.2241208
9.076                0.988935681     -78.3446045
9.077                0.988910436     -78.4653858
9.078                 0.98888512     -78.5864655
9.079                0.988859731     -78.7078445
9.08                 0.988834271     -78.8295236
9.081                0.988808738     -78.9515038
9.082                0.988783132     -79.0737859
9.083                0.988757455     -79.1963708
9.084                0.988731705     -79.3192594
9.085                0.988705882     -79.4424524
9.086                0.988679986     -79.5659509
9.087                0.988654017     -79.6897557
9.088                0.988627976     -79.8138676
9.089                0.988601861     -79.9382876
9.09                 0.988575673     -80.0630166
9.091                0.988549411     -80.1880553
9.092                0.988523076     -80.3134048
9.093                0.988496668     -80.4390659
9.094                0.988470185     -80.5650394
9.095                0.988443629     -80.6913264
9.096                0.988416999     -80.8179276
9.097                0.988390295      -80.944844
9.098                0.988363517     -81.0720765
9.099                0.988336665     -81.1996259
9.1                  0.988309738     -81.3274933
9.101                0.988282737     -81.4556794
9.102                0.988255661     -81.5841851
9.103                0.988228511     -81.7130115
9.104                0.988201286     -81.8421593
9.105                0.988173987     -81.9716296
9.106                0.988146612     -82.1014231
9.107                0.988119163     -82.2315409
9.108                0.988091638     -82.3619838
9.109                0.988064039     -82.4927527
9.11                 0.988036364     -82.6238486
9.111                0.988008614     -82.7552724
9.112                0.987980788     -82.8870249
9.113                0.987952887     -83.0191072
9.114                0.987924911     -83.1515201
9.115                0.987896859     -83.2842645
9.116                0.987868731     -83.4173414
9.117                0.987840528     -83.5507517
9.118                0.987812248     -83.6844963
9.119                0.987783893     -83.8185762
9.12                 0.987755462     -83.9529922
9.121                0.987726955     -84.0877453
9.122                0.987698372     -84.2228365
9.123                0.987669713     -84.3582666
9.124                0.987640977     -84.4940366
9.125                0.987612165     -84.6301474
9.126                0.987583277     -84.7665999
9.127                0.987554313     -84.9033952
9.128                0.987525272     -85.0405341
9.129                0.987496155     -85.1780175
9.13                 0.987466962     -85.3158464
9.131                0.987437692     -85.4540218
9.132                0.987408345     -85.5925445
9.133                0.987378922     -85.7314156
9.134                0.987349422     -85.8706359
9.135                0.987319845     -86.0102063
9.136                0.987290192      -86.150128
9.137                0.987260462     -86.2904017
9.138                0.987230656     -86.4310284
9.139                0.987200772     -86.5720091
9.14                 0.987170812     -86.7133447
9.141                0.987140775     -86.8550361
9.142                0.987110662     -86.9970844
9.143                0.987080471     -87.1394904
9.144                0.987050204     -87.2822551
9.145                 0.98701986     -87.4253794
9.146                0.986989439     -87.5688643
9.147                0.986958941     -87.7127108
9.148                0.986928366     -87.8569197
9.149                0.986897715     -88.0014921
9.15                 0.986866986     -88.1464289
9.151                0.986836181      -88.291731
9.152                  0.9868053     -88.4373994
9.153                0.986774341      -88.583435
9.154                0.986743306     -88.7298388
9.155                0.986712194     -88.8766118
9.156                0.986681005     -89.0237548
9.157                0.986649739     -89.1712689
9.158                0.986618397     -89.3191549
9.159                0.986586979     -89.4674139
9.16                 0.986555484     -89.6160468
9.161                0.986523912     -89.7650545
9.162                0.986492264     -89.9144381
9.163                0.986460539     -90.0641983
9.164                0.986428738     -90.2143363
9.165                0.986396861     -90.3648529
9.166                0.986364908     -90.5157491
9.167                0.986332878     -90.6670258
9.168                0.986300773     -90.8186841
9.169                0.986268591     -90.9707248
9.17                 0.986236333     -91.1231488
9.171                   0.986204     -91.2759572
9.172                 0.98617159     -91.4291509
9.173                0.986139105     -91.5827309
9.174                0.986106545      -91.736698
9.175                0.986073909     -91.8910532
9.176                0.986041197     -92.0457976
9.177                 0.98600841     -92.2009319
9.178                0.985975548     -92.3564572
9.179                0.985942611     -92.5123744
9.18                 0.985909599     -92.6686845
9.181                0.985876512     -92.8253883
9.182                 0.98584335     -92.9824869
9.183                0.985810114     -93.1399811
9.184                0.985776803      -93.297872
9.185                0.985743418     -93.4561603
9.186                0.985709959     -93.6148472
9.187                0.985676425     -93.7739335
9.188                0.985642818     -93.9334201
9.189                0.985609137     -94.0933081
9.19                 0.985575382     -94.2535982
9.191                0.985541554     -94.4142915
9.192                0.985507653     -94.5753888
9.193                0.985473679     -94.7368911
9.194                0.985439631     -94.8987994
9.195                0.985405512     -95.0611145
9.196                0.985371319     -95.2238374
9.197                0.985337054      -95.386969
9.198                0.985302717     -95.5505101
9.199                0.985268308     -95.7144618
9.2                  0.985233828      -95.878825
9.201                0.985199276     -96.0436004
9.202                0.985164652     -96.2087892
9.203                0.985129958     -96.3743921
9.204                0.985095193     -96.5404101
9.205                0.985060357      -96.706844
9.206                0.985025451     -96.8736949
9.207                0.984990474     -97.0409635
9.208                0.984955428     -97.2086508
9.209                0.984920313     -97.3767576
9.21                 0.984885127      -97.545285
9.211                0.984849873     -97.7142336
9.212                 0.98481455     -97.8836046
9.213                0.984779159     -98.0533986
9.214                0.984743699     -98.2236167
9.215                0.984708171     -98.3942596
9.216                0.984672576     -98.5653283
9.217                0.984636914     -98.7368236
9.218                0.984601184     -98.9087464
9.219                0.984565388     -99.0810976
9.22                 0.984529525      -99.253878
9.221                0.984493596     -99.4270885
9.222                0.984457602     -99.6007299
9.223                0.984421542     -99.7748032
9.224                0.984385417     -99.9493091
9.225                0.984349227     -100.124248
9.226                0.984312973     -100.299622
9.227                0.984276655     -100.475431
9.228                0.984240274     -100.651676
9.229                0.984203829     -100.828358
9.23                 0.984167322     -101.005477
9.231                0.984130752     -101.183035
9.232                 0.98409412     -101.361032
9.233                0.984057426     -101.539469
9.234                0.984020671     -101.718348
9.235                0.983983856     -101.897668
9.236                 0.98394698      -102.07743
9.237                0.983910044     -102.257636
9.238                0.983873049     -102.438286
9.239                0.983835994     -102.619381
9.24                 0.983798882     -102.800921
9.241                0.983761711     -102.982908
9.242                0.983724482     -103.165343
9.243                0.983687196     -103.348225
9.244                0.983649854     -103.531556
9.245                0.983612455     -103.715337
9.246                0.983575001     -103.899567
9.247                0.983537491     -104.084249
9.248                0.983499927     -104.269383
9.249                0.983462309     -104.454969
9.25                 0.983424637     -104.641009
9.251                0.983386912     -104.827502
9.252                0.983349134      -105.01445
9.253                0.983311305     -105.201853
9.254                0.983273424     -105.389713
9.255                0.983235492     -105.578029
9.256                0.983197511     -105.766803
9.257                0.983159479     -105.956035
9.258                0.983121398     -106.145726
9.259                0.983083269     -106.335876
9.26                 0.983045092     -106.526487
9.261                0.983006868     -106.717558
9.262                0.982968597     -106.909091
9.263                0.982930281     -107.101086
9.264                0.982891919     -107.293544
9.265                0.982853512     -107.486466
9.266                0.982815061     -107.679851
9.267                0.982776567     -107.873701
9.268                0.982738031     -108.068017
9.269                0.982699452     -108.262798
9.27                 0.982660832     -108.458046
9.271                0.982622172     -108.653761
9.272                0.982583471     -108.849943
9.273                0.982544732     -109.046594
9.274                0.982505954     -109.243713
9.275                0.982467138     -109.441302
9.276                0.982428286     -109.639361
9.277                0.982389398      -109.83789
9.278                0.982350474     -110.036891
9.279                0.982311515     -110.236362
9.28                 0.982272523     -110.436306
9.281                0.982233498     -110.636722
9.282                 0.98219444     -110.837611
9.283                0.982155351     -111.038974
9.284                0.982116232     -111.240811
9.285                0.982077083     -111.443122
9.286                0.982037905     -111.645908
9.287                0.981998698     -111.849169
9.288                0.981959465     -112.052907
9.289                0.981920206      -112.25712
9.29                 0.981880921      -112.46181
9.291                0.981841611     -112.666977
9.292                0.981802278     -112.872622
9.293                0.981762922     -113.078744
9.294                0.981723544     -113.285345
9.295                0.981684146     -113.492424
9.296                0.981644727     -113.699982
9.297                 0.98160529     -113.908019
9.298                0.981565834     -114.116536
9.299                0.981526361     -114.325533
9.3                  0.981486873     -114.535011
9.301                0.981447369     -114.744969
9.302                0.981407851     -114.955407
9.303                 0.98136832     -115.166327
9.304                0.981328777     -115.377729
9.305                0.981289223     -115.589612
9.306                0.981249659     -115.801976
9.307                0.981210086     -116.014824
9.308                0.981170505     -116.228153
9.309                0.981130917     -116.441965
9.31                 0.981091324      -116.65626
9.311                0.981051725     -116.871038
9.312                0.981012124     -117.086299
9.313                0.980972519     -117.302043
9.314                0.980932914     -117.518271
9.315                0.980893308     -117.734982
9.316                0.980853703     -117.952177
9.317                  0.9808141     -118.169856
9.318                  0.9807745     -118.388019
9.319                0.980734905     -118.606666
9.32                 0.980695315     -118.825797
9.321                0.980655733     -119.045412
9.322                0.980616158     -119.265511
9.323                0.980576592     -119.486094
9.324                0.980537036     -119.707162
9.325                0.980497492     -119.928713
9.326                0.980457962     -120.150749
9.327                0.980418445      -120.37327
9.328                0.980378943     -120.596274
9.329                0.980339458     -120.819762
9.33                 0.980299991     -121.043734
9.331                0.980260543     -121.268191
9.332                0.980221116     -121.493131
9.333                0.980181711     -121.718554
9.334                0.980142328     -121.944462
9.335                 0.98010297     -122.170852
9.336                0.980063638     -122.397726
9.337                0.980024333     -122.625083
9.338                0.979985057     -122.852923
9.339                 0.97994581     -123.081245
9.34                 0.979906595      -123.31005
9.341                0.979867412     -123.539337
9.342                0.979828263     -123.769106
9.343                 0.97978915     -123.999357
9.344                0.979750073     -124.230089
9.345                0.979711035     -124.461302
9.346                0.979672037     -124.692995
9.347                0.979633079     -124.925169
9.348                0.979594164     -125.157823
9.349                0.979555294     -125.390957
9.35                 0.979516469      -125.62457
9.351                0.979477691     -125.858662
9.352                0.979438961     -126.093232
9.353                0.979400281      -126.32828
9.354                0.979361653     -126.563805
9.355                0.979323078     -126.799808
9.356                0.979284558     -127.036287
9.357                0.979246094     -127.273242
9.358                0.979207687     -127.510673
9.359                 0.97916934     -127.748578
9.36                 0.979131053     -127.986958
9.361                0.979092829     -128.225811
9.362                0.979054668     -128.465138
9.363                0.979016574     -128.704937
9.364                0.978978546     -128.945208
9.365                0.978940587      -129.18595
9.366                0.978902698     -129.427162
9.367                0.978864882     -129.668845
9.368                0.978827139     -129.910996
9.369                0.978789471     -130.153616
9.37                  0.97875188     -130.396703
9.371                0.978714367     -130.640257
9.372                0.978676935     -130.884277
9.373                0.978639585     -131.128763
9.374                0.978602318     -131.373712
9.375                0.978565136     -131.619125
9.376                0.978528041     -131.865001
9.377                0.978491035     -132.111338
9.378                0.978454119     -132.358136
9.379                0.978417296     -132.605394
9.38                 0.978380565      -132.85311
9.381                0.978343931     -133.101285
9.382                0.978307393     -133.349916
9.383                0.978270955     -133.599003
9.384                0.978234617     -133.848545
9.385                0.978198382     -134.098541
9.386                0.978162251     -134.348989
9.387                0.978126225     -134.599889
9.388                0.978090308     -134.851239
9.389                  0.9780545     -135.103038
9.39                 0.978018803     -135.355286
9.391                0.977983219      -135.60798
9.392                 0.97794775      -135.86112
9.393                0.977912398     -136.114705
9.394                0.977877164     -136.368732
9.395                0.977842051     -136.623202
9.396                0.977807059     -136.878112
9.397                0.977772191     -137.133462
9.398                0.977737449     -137.389249
9.399                0.977702835     -137.645473
9.4                  0.977668349     -137.902132
9.401                0.977633995     -138.159225
9.402                0.977599774      -138.41675
9.403                0.977565688     -138.674706
9.404                0.977531738     -138.933091
9.405                0.977497927     -139.191904
9.406                0.977464256     -139.451144
9.407                0.977430727     -139.710809
9.408                0.977397342     -139.970896
9.409                0.977364103     -140.231406
9.41                 0.977331012     -140.492335
9.411                 0.97729807     -140.753683
9.412                 0.97726528     -141.015448
9.413                0.977232643     -141.277628
9.414                0.977200161     -141.540221
9.415                0.977167836     -141.803226
9.416                 0.97713567     -142.066641
9.417                0.977103665     -142.330464
9.418                0.977071822     -142.594694
9.419                0.977040144     -142.859328
9.42                 0.977008632     -143.124365
9.421                0.976977288     -143.389802
9.422                0.976946115     -143.655639
9.423                0.976915113     -143.921873
9.424                0.976884284     -144.188501
9.425                0.976853632     -144.455524
9.426                0.976823157     -144.722937
9.427                0.976792861     -144.990739
9.428                0.976762746     -145.258929
9.429                0.976732814     -145.527504
9.43                 0.976703067     -145.796462
9.431                0.976673507     -146.065802
9.432                0.976644135      -146.33552
9.433                0.976614953     -146.605615
9.434                0.976585964     -146.876084
9.435                0.976557169     -147.146926
9.436                 0.97652857     -147.418139
9.437                0.976500168     -147.689719
9.438                0.976471966     -147.961665
9.439                0.976443965     -148.233975
9.44                 0.976416167     -148.506646
9.441                0.976388574     -148.779676
9.442                0.976361188     -149.053063
9.443                 0.97633401     -149.326804
9.444                0.976307043     -149.600896
9.445                0.976280288     -149.875339
9.446                0.976253746     -150.150128
9.447                 0.97622742     -150.425262
9.448                0.976201312     -150.700738
9.449                0.976175423     -150.976554
9.45                 0.976149755     -151.252707
9.451                0.976124309     -151.529195
9.452                0.976099088     -151.806015
9.453                0.976074092     -152.083164
9.454                0.976049325      -152.36064
9.455                0.976024787     -152.638441
9.456                 0.97600048     -152.916563
9.457                0.975976407     -153.195005
9.458                0.975952567     -153.473762
9.459                0.975928964     -153.752834
9.46                 0.975905599     -154.032216
9.461                0.975882474     -154.311907
9.462                 0.97585959     -154.591902
9.463                0.975836949     -154.872201
9.464                0.975814552     -155.152799
9.465                0.975792401     -155.433695
9.466                0.975770498     -155.714884
9.467                0.975748844     -155.996365
9.468                0.975727441     -156.278135
9.469                 0.97570629      -156.56019
9.47                 0.975685393     -156.842527
9.471                0.975664752     -157.125144
9.472                0.975644368     -157.408038
9.473                0.975624242     -157.691206
9.474                0.975604377     -157.974644
9.475                0.975584772      -158.25835
9.476                0.975565431     -158.542321
9.477                0.975546354     -158.826553
9.478                0.975527543     -159.111044
9.479                0.975508999     -159.395791
9.48                 0.975490724     -159.680789
9.481                0.975472719     -159.966037
9.482                0.975454986     -160.251531
9.483                0.975437525     -160.537268
9.484                0.975420339     -160.823245
9.485                0.975403428     -161.109458
9.486                0.975386794     -161.395905
9.487                0.975370438     -161.682581
9.488                0.975354361     -161.969485
9.489                0.975338565     -162.256612
9.49                 0.975323051     -162.543959
9.491                 0.97530782     -162.831524
9.492                0.975292874     -163.119302
9.493                0.975278213      -163.40729
9.494                0.975263839     -163.695486
9.495                0.975249753     -163.983885
9.496                0.975235956     -164.272484
9.497                0.975222448     -164.561281
9.498                0.975209233     -164.850271
9.499                0.975196309     -165.139451
9.5                  0.975183679     -165.428817
9.501                0.975171344     -165.718367
9.502                0.975159304     -166.008096
9.503                 0.97514756     -166.298002
9.504                0.975136114     -166.588081
9.505                0.975124966     -166.878329
9.506                0.975114118     -167.168742
9.507                 0.97510357     -167.459318
9.508                0.975093323     -167.750053
9.509                0.975083379     -168.040943
9.51                 0.975073737     -168.331984
9.511                0.975064399     -168.623174
9.512                0.975055366     -168.914507
9.513                0.975046638     -169.205982
9.514                0.975038216     -169.497594
9.515                0.975030101      -169.78934
9.516                0.975022294     -170.081216
9.517                0.975014795     -170.373218
9.518                0.975007606     -170.665343
9.519                0.975000726     -170.957587
9.52                 0.974994156     -171.249946
9.521                0.974987897     -171.542418
9.522                 0.97498195     -171.834997
9.523                0.974976315      -172.12768
9.524                0.974970993     -172.420465
9.525                0.974965983     -172.713346
9.526                0.974961288     -173.006321
9.527                0.974956907     -173.299385
9.528                 0.97495284     -173.592535
9.529                0.974949088     -173.885767
9.53                 0.974945652     -174.179078
9.531                0.974942532     -174.472463
9.532                0.974939728     -174.765919
9.533                0.974937241     -175.059442
9.534                 0.97493507     -175.353029
9.535                0.974933216     -175.646675
9.536                 0.97493168     -175.940377
9.537                0.974930462      -176.23413
9.538                0.974929561     -176.527933
9.539                0.974928979     -176.821779
9.54                 0.974928714     -177.115667
9.541                0.974928768     -177.409591
9.542                0.974929141     -177.703548
9.543                0.974929832     -177.997535
9.544                0.974930841     -178.291547
9.545                 0.97493217     -178.585581
9.546                0.974933817     -178.879633
9.547                0.974935782     -179.173699
9.548                0.974938066     -179.467776
9.549                0.974940669     -179.761858
9.55                 0.974943591      179.944056
9.551                 0.97494683      179.649972
9.552                0.974950388      179.355892
9.553                0.974954264      179.061821
9.554                0.974958459      178.767763
9.555                 0.97496297      178.473721
9.556                  0.9749678      178.179699
9.557                0.974972946      177.885701
9.558                 0.97497841      177.591731
9.559                 0.97498419      177.297792
9.56                 0.974990286      177.003889
9.561                0.974996699      176.710024
9.562                0.975003427      176.416203
9.563                 0.97501047      176.122428
9.564                0.975017828      175.828704
9.565                0.975025501      175.535034
9.566                0.975033487      175.241421
9.567                0.975041787      174.947871
9.568                0.975050399      174.654386
9.569                0.975059324      174.360971
9.57                 0.975068561      174.067628
9.571                0.975078109      173.774363
9.572                0.975087967      173.481177
9.573                0.975098136      173.188077
9.574                0.975108613      172.895064
9.575                0.975119399      172.602142
9.576                0.975130493      172.309317
9.577                0.975141895       172.01659
9.578                0.975153602      171.723966
9.579                0.975165616      171.431449
9.58                 0.975177934      171.139042
9.581                0.975190556      170.846749
9.582                0.975203481      170.554573
9.583                0.975216709      170.262519
9.584                0.975230238      169.970589
9.585                0.975244067      169.678788
9.586                0.975258197      169.387119
9.587                0.975272624      169.095586
9.588                 0.97528735      168.804192
9.589                0.975302372      168.512941
9.59                  0.97531769      168.221837
9.591                0.975333303      167.930883
9.592                0.975349209      167.640082
9.593                0.975365408      167.349439
9.594                0.975381898      167.058956
9.595                0.975398679      166.768638
9.596                0.975415749      166.478488
9.597                0.975433107      166.188509
9.598                0.975450751      165.898704
9.599                0.975468682      165.609078
9.6                  0.975486897      165.319634
9.601                0.975505395      165.030375