! TOUCHSTONE file generated by CST DESIGN STUDIO
! Date and time: Tue Feb  4 13:09:10 2025
! Project name: C:\Work\MatlabApps\UnitCellOptimizationMatlab\CST\unitcell.cst
! Tree item: Tasks\Sweep1\SPara1\S-Parameters
! Header version: 2024
! Port assignment regex: !\s*Touchstone port\s*([0-9]+)\s*=\s*(CST MWS port|CST DES external port|CST DES block port)\s*(.+)\s* \(\"(.*)\"\)(\s*mode\s*([0-9]+))?.*
! Touchstone port assignment:
! Touchstone port 1 = CST DES external port 1 ("")
# GHz S MA R 50
9                    0.945741928      -61.322231
9.001                0.945658055     -61.4072275
9.002                0.945574121     -61.4924461
9.003                0.945490125     -61.5778875
9.004                0.945406064     -61.6635525
9.005                0.945321938      -61.749442
9.006                0.945237744     -61.8355566
9.007                0.945153481     -61.9218973
9.008                0.945069148     -62.0084648
9.009                0.944984743       -62.09526
9.01                 0.944900264     -62.1822837
9.011                0.944815709     -62.2695366
9.012                0.944731078     -62.3570197
9.013                0.944646368     -62.4447337
9.014                0.944561578     -62.5326794
9.015                0.944476706     -62.6208577
9.016                 0.94439175     -62.7092695
9.017                 0.94430671     -62.7979155
9.018                0.944221583     -62.8867966
9.019                0.944136367     -62.9759136
9.02                 0.944051061     -63.0652674
9.021                0.943965663     -63.1548588
9.022                0.943880172     -63.2446887
9.023                0.943794586     -63.3347579
9.024                0.943708903     -63.4250673
9.025                0.943623122     -63.5156177
9.026                 0.94353724     -63.6064101
9.027                0.943451256     -63.6974451
9.028                0.943365169     -63.7887238
9.029                0.943278977      -63.880247
9.03                 0.943192677     -63.9720155
9.031                0.943106269     -64.0640302
9.032                 0.94301975     -64.1562921
9.033                0.942933118      -64.248802
9.034                0.942846373     -64.3415607
9.035                0.942759512     -64.4345692
9.036                0.942672533     -64.5278283
9.037                0.942585435      -64.621339
9.038                0.942498216     -64.7151021
9.039                0.942410875     -64.8091185
9.04                 0.942323408     -64.9033892
9.041                0.942235815      -64.997915
9.042                0.942148094     -65.0926968
9.043                0.942060243     -65.1877356
9.044                 0.94197226     -65.2830323
9.045                0.941884143     -65.3785877
9.046                0.941795891     -65.4744028
9.047                0.941707501     -65.5704786
9.048                0.941618973     -65.6668158
9.049                0.941530303     -65.7634156
9.05                 0.941441491     -65.8602787
9.051                0.941352534     -65.9574062
9.052                0.941263431      -66.054799
9.053                0.941174179     -66.1524579
9.054                0.941084777      -66.250384
9.055                0.940995224     -66.3485782
9.056                0.940905516     -66.4470415
9.057                0.940815652     -66.5457747
9.058                0.940725631     -66.6447789
9.059                 0.94063545      -66.744055
9.06                 0.940545108      -66.843604
9.061                0.940454602     -66.9434268
9.062                0.940363931     -67.0435244
9.063                0.940273093     -67.1438978
9.064                0.940182086      -67.244548
9.065                0.940090908     -67.3454759
9.066                0.939999557     -67.4466824
9.067                0.939908032     -67.5481687
9.068                0.939816329     -67.6499357
9.069                0.939724448     -67.7519843
9.07                 0.939632386     -67.8543155
9.071                0.939540142     -67.9569305
9.072                0.939447713       -68.05983
9.073                0.939355098     -68.1630153
9.074                0.939262294     -68.2664872
9.075                  0.9391693     -68.3702468
9.076                0.939076114      -68.474295
9.077                0.938982733      -68.578633
9.078                0.938889156     -68.6832616
9.079                0.938795381     -68.7881821
9.08                 0.938701405     -68.8933952
9.081                0.938607227     -68.9989022
9.082                0.938512845      -69.104704
9.083                0.938418257     -69.2108017
9.084                0.938323461     -69.3171963
9.085                0.938228454     -69.4238888
9.086                0.938133235     -69.5308803
9.087                0.938037802     -69.6381718
9.088                0.937942152     -69.7457644
9.089                0.937846285     -69.8536592
9.09                 0.937750197     -69.9618572
9.091                0.937653886     -70.0703594
9.092                0.937557352     -70.1791669
9.093                0.937460591     -70.2882809
9.094                0.937363601     -70.3977023
9.095                0.937266381     -70.5074323
9.096                0.937168929     -70.6174718
9.097                0.937071242     -70.7278221
9.098                0.936973318     -70.8384842
9.099                0.936875156     -70.9494591
9.1                  0.936776753      -71.060748
9.101                0.936678107      -71.172352
9.102                0.936579216     -71.2842721
9.103                0.936480078     -71.3965095
9.104                0.936380692     -71.5090653
9.105                0.936281054     -71.6219405
9.106                0.936181163     -71.7351363
9.107                0.936081017     -71.8486539
9.108                0.935980614     -71.9624942
9.109                0.935879951     -72.0766585
9.11                 0.935779027     -72.1911479
9.111                0.935677839     -72.3059635
9.112                0.935576386     -72.4211063
9.113                0.935474665     -72.5365777
9.114                0.935372674     -72.6523787
9.115                0.935270411     -72.7685104
9.116                0.935167874      -72.884974
9.117                0.935065061     -73.0017706
9.118                0.934961969     -73.1189015
9.119                0.934858598     -73.2363677
9.12                 0.934754944     -73.3541704
9.121                0.934651005     -73.4723108
9.122                0.934546779       -73.59079
9.123                0.934442265     -73.7096092
9.124                 0.93433746     -73.8287696
9.125                0.934232362     -73.9482724
9.126                0.934126969     -74.0681187
9.127                0.934021278     -74.1883098
9.128                0.933915288     -74.3088467
9.129                0.933808997     -74.4297308
9.13                 0.933702402     -74.5509631
9.131                0.933595501     -74.6725449
9.132                0.933488292     -74.7944774
9.133                0.933380774     -74.9167618
9.134                0.933272943     -75.0393993
9.135                0.933164798     -75.1623911
9.136                0.933056336     -75.2857384
9.137                0.932947556     -75.4094425
9.138                0.932838456     -75.5335045
9.139                0.932729032     -75.6579257
9.14                 0.932619284     -75.7827074
9.141                0.932509209     -75.9078506
9.142                0.932398805     -76.0333567
9.143                0.932288069      -76.159227
9.144                   0.932177     -76.2854626
9.145                0.932065595     -76.4120647
9.146                0.931953853     -76.5390348
9.147                0.931841771     -76.6663739
9.148                0.931729348     -76.7940833
9.149                 0.93161658     -76.9221644
9.15                 0.931503466     -77.0506183
9.151                0.931390004     -77.1794463
9.152                0.931276191     -77.3086497
9.153                0.931162026     -77.4382298
9.154                0.931047507     -77.5681878
9.155                 0.93093263      -77.698525
9.156                0.930817395     -77.8292427
9.157                0.930701799     -77.9603422
9.158                 0.93058584     -78.0918247
9.159                0.930469516     -78.2236916
9.16                 0.930352824     -78.3559441
9.161                0.930235764     -78.4885835
9.162                0.930118332     -78.6216112
9.163                0.930000526     -78.7550284
9.164                0.929882344     -78.8888364
9.165                0.929763785     -79.0230365
9.166                0.929644847     -79.1576301
9.167                0.929525526     -79.2926185
9.168                0.929405821      -79.428003
9.169                0.929285731     -79.5637848
9.17                 0.929165252     -79.6999654
9.171                0.929044383      -79.836546
9.172                0.928923122      -79.973528
9.173                0.928801467     -80.1109127
9.174                0.928679415     -80.2487014
9.175                0.928556965     -80.3868956
9.176                0.928434114     -80.5254964
9.177                0.928310862     -80.6645053
9.178                0.928187204     -80.8039236
9.179                 0.92806314     -80.9437527
9.18                 0.927938668     -81.0839939
9.181                0.927813785     -81.2246485
9.182                 0.92768849      -81.365718
9.183                 0.92756278     -81.5072036
9.184                0.927436653     -81.6491068
9.185                0.927310108     -81.7914289
9.186                0.927183143     -81.9341712
9.187                0.927055755     -82.0773353
9.188                0.926927942     -82.2209223
9.189                0.926799703     -82.3649337
9.19                 0.926671036     -82.5093709
9.191                0.926541939     -82.6542352
9.192                0.926412409     -82.7995281
9.193                0.926282445     -82.9452509
9.194                0.926152045      -83.091405
9.195                0.926021207     -83.2379918
9.196                 0.92588993     -83.3850127
9.197                 0.92575821     -83.5324691
9.198                0.925626047     -83.6803624
9.199                0.925493438     -83.8286939
9.2                  0.925360382     -83.9774651
9.201                0.925226876     -84.1266775
9.202                 0.92509292     -84.2763323
9.203                 0.92495851      -84.426431
9.204                0.924823646     -84.5769751
9.205                0.924688326     -84.7279658
9.206                0.924552547     -84.8794047
9.207                0.924416307     -85.0312932
9.208                0.924279606     -85.1836326
9.209                0.924142441     -85.3364245
9.21                 0.924004811     -85.4896701
9.211                0.923866714      -85.643371
9.212                0.923728148     -85.7975286
9.213                0.923589111     -85.9521443
9.214                0.923449602     -86.1072194
9.215                0.923309619     -86.2627556
9.216                 0.92316916     -86.4187541
9.217                0.923028224     -86.5752165
9.218                0.922886809     -86.7321441
9.219                0.922744914     -86.8895384
9.22                 0.922602536     -87.0474008
9.221                0.922459675     -87.2057328
9.222                0.922316328     -87.3645358
9.223                0.922172494     -87.5238113
9.224                0.922028172     -87.6835606
9.225                 0.92188336     -87.8437853
9.226                0.921738056     -88.0044868
9.227                 0.92159226     -88.1656665
9.228                0.921445969     -88.3273259
9.229                0.921299182     -88.4894664
9.23                 0.921151898     -88.6520895
9.231                0.921004115     -88.8151966
9.232                0.920855832     -88.9787892
9.233                0.920707047     -89.1428687
9.234                0.920557759     -89.3074366
9.235                0.920407967     -89.4724944
9.236                 0.92025767     -89.6380434
9.237                0.920106866     -89.8040851
9.238                0.919955553      -89.970621
9.239                0.919803731     -90.1376526
9.24                 0.919651399     -90.3051813
9.241                0.919498554     -90.4732085
9.242                0.919345197     -90.6417357
9.243                0.919191325     -90.8107644
9.244                0.919036938      -90.980296
9.245                0.918882034      -91.150332
9.246                0.918726613     -91.3208737
9.247                0.918570673     -91.4919228
9.248                0.918414214     -91.6634805
9.249                0.918257234     -91.8355485
9.25                 0.918099732     -92.0081281
9.251                0.917941707     -92.1812207
9.252                0.917783159     -92.3548279
9.253                0.917624086      -92.528951
9.254                0.917464488     -92.7035916
9.255                0.917304363      -92.878751
9.256                0.917143712     -93.0544308
9.257                0.916982532     -93.2306323
9.258                0.916820824     -93.4073571
9.259                0.916658586     -93.5846065
9.26                 0.916495818     -93.7623819
9.261                 0.91633252      -93.940685
9.262                0.916168689     -94.1195169
9.263                0.916004327     -94.2988793
9.264                0.915839432     -94.4787735
9.265                0.915674004      -94.659201
9.266                0.915508042     -94.8401632
9.267                0.915341546     -95.0216615
9.268                0.915174515     -95.2036974
9.269                0.915006948     -95.3862723
9.27                 0.914838847     -95.5693875
9.271                0.914670209     -95.7530446
9.272                0.914501035     -95.9372449
9.273                0.914331325     -96.1219899
9.274                0.914161078     -96.3072809
9.275                0.913990294     -96.4931194
9.276                0.913818973     -96.6795068
9.277                0.913647114     -96.8664444
9.278                0.913474719     -97.0539337
9.279                0.913301786     -97.2419761
9.28                 0.913128315     -97.4305729
9.281                0.912954307     -97.6197256
9.282                0.912779762     -97.8094355
9.283                 0.91260468      -97.999704
9.284                 0.91242906     -98.1905325
9.285                0.912252904     -98.3819223
9.286                0.912076211     -98.5738749
9.287                0.911898981     -98.7663915
9.288                0.911721216     -98.9594736
9.289                0.911542915     -99.1531224
9.29                 0.911364078     -99.3473394
9.291                0.911184707     -99.5421259
9.292                0.911004801     -99.7374832
9.293                0.910824362     -99.9334127
9.294                0.910643389     -100.129916
9.295                0.910461884     -100.326993
9.296                0.910279847     -100.524647
9.297                0.910097279     -100.722879
9.298                0.909914181     -100.921689
9.299                0.909730553     -101.121079
9.3                  0.909546397      -101.32105
9.301                0.909361712     -101.521604
9.302                0.909176501     -101.722742
9.303                0.908990765     -101.924465
9.304                0.908804504     -102.126775
9.305                0.908617719     -102.329672
9.306                0.908430413     -102.533158
9.307                0.908242585     -102.737234
9.308                0.908054238     -102.941902
9.309                0.907865372     -103.147162
9.31                  0.90767599     -103.353017
9.311                0.907486092     -103.559466
9.312                0.907295681     -103.766512
9.313                0.907104757     -103.974155
9.314                0.906913322     -104.182397
9.315                0.906721379     -104.391238
9.316                0.906528928     -104.600681
9.317                0.906335972     -104.810726
9.318                0.906142513     -105.021374
9.319                0.905948553     -105.232627
9.32                 0.905754092     -105.444485
9.321                0.905559135      -105.65695
9.322                0.905363682     -105.870023
9.323                0.905167736     -106.083705
9.324                  0.9049713     -106.297997
9.325                0.904774375       -106.5129
9.326                0.904576964     -106.728415
9.327                0.904379069     -106.944543
9.328                0.904180693     -107.161286
9.329                0.903981839     -107.378644
9.33                 0.903782509     -107.596619
9.331                0.903582706     -107.815211
9.332                0.903382432     -108.034421
9.333                0.903181692     -108.254251
9.334                0.902980486     -108.474701
9.335                 0.90277882     -108.695772
9.336                0.902576694     -108.917466
9.337                0.902374114     -109.139782
9.338                0.902171082     -109.362724
9.339                0.901967601      -109.58629
9.34                 0.901763674     -109.810482
9.341                0.901559306     -110.035301
9.342                0.901354499     -110.260747
9.343                0.901149257     -110.486823
9.344                0.900943584     -110.713527
9.345                0.900737484     -110.940862
9.346                0.900530961     -111.168828
9.347                0.900324017     -111.397426
9.348                0.900116658     -111.626657
9.349                0.899908887     -111.856521
9.35                 0.899700709     -112.087019
9.351                0.899492127     -112.318152
9.352                0.899283146     -112.549921
9.353                0.899073771     -112.782326
9.354                0.898864006     -113.015368
9.355                0.898653854     -113.249048
9.356                0.898443322     -113.483367
9.357                0.898232413     -113.718324
9.358                0.898021133     -113.953921
9.359                0.897809486     -114.190158
9.36                 0.897597477     -114.427036
9.361                0.897385111     -114.664555
9.362                0.897172394     -114.902716
9.363                 0.89695933      -115.14152
9.364                0.896745925     -115.380967
9.365                0.896532185     -115.621057
9.366                0.896318113     -115.861791
9.367                0.896103718     -116.103169
9.368                0.895889002     -116.345192
9.369                0.895673974     -116.587861
9.37                 0.895458637     -116.831175
9.371                0.895242999     -117.075135
9.372                0.895027065     -117.319741
9.373                0.894810841     -117.564994
9.374                0.894594334     -117.810894
9.375                0.894377549     -118.057441
9.376                0.894160493     -118.304636
9.377                0.893943173     -118.552478
9.378                0.893725594     -118.800968
9.379                0.893507764     -119.050107
9.38                  0.89328969     -119.299893
9.381                0.893071377     -119.550328
9.382                0.892852833     -119.801412
9.383                0.892634064     -120.053145
9.384                0.892415079     -120.305526
9.385                0.892195884     -120.558556
9.386                0.891976486     -120.812235
9.387                0.891756892     -121.066562
9.388                0.891537111     -121.321539
9.389                0.891317149     -121.577164
9.39                 0.891097014     -121.833438
9.391                0.890876714      -122.09036
9.392                0.890656256     -122.347931
9.393                 0.89043565     -122.606151
9.394                0.890214901     -122.865018
9.395                 0.88999402     -123.124534
9.396                0.889773012     -123.384697
9.397                0.889551888     -123.645507
9.398                0.889330656     -123.906965
9.399                0.889109323     -124.169069
9.4                  0.888887898      -124.43182
9.401                0.888666391     -124.695217
9.402                0.888444809      -124.95926
9.403                0.888223161     -125.223948
9.404                0.888001457     -125.489281
9.405                0.887779705     -125.755258
9.406                0.887557915     -126.021879
9.407                0.887336096     -126.289143
9.408                0.887114256      -126.55705
9.409                0.886892406     -126.825599
9.41                 0.886670554     -127.094789
9.411                0.886448711     -127.364621
9.412                0.886226886     -127.635092
9.413                0.886005088     -127.906202
9.414                0.885783328     -128.177952
9.415                0.885561615     -128.450339
9.416                0.885339959     -128.723362
9.417                0.885118371     -128.997022
9.418                0.884896861     -129.271317
9.419                0.884675438     -129.546247
9.42                 0.884454114     -129.821809
9.421                0.884232898     -130.098004
9.422                0.884011802      -130.37483
9.423                0.883790835     -130.652287
9.424                0.883570009     -130.930372
9.425                0.883349334     -131.209085
9.426                0.883128822     -131.488426
9.427                0.882908482     -131.768392
9.428                0.882688326     -132.048982
9.429                0.882468366     -132.330195
9.43                 0.882248612      -132.61203
9.431                0.882029075     -132.894486
9.432                0.881809768     -133.177561
9.433                0.881590701     -133.461253
9.434                0.881371886     -133.745562
9.435                0.881153335     -134.030485
9.436                0.880935058     -134.316022
9.437                0.880717069      -134.60217
9.438                0.880499378     -134.888928
9.439                0.880281998     -135.176295
9.44                  0.88006494     -135.464269
9.441                0.879848218     -135.752847
9.442                0.879631841     -136.042029
9.443                0.879415824     -136.331813
9.444                0.879200178     -136.622196
9.445                0.878984915     -136.913177
9.446                0.878770047     -137.204755
9.447                0.878555589     -137.496926
9.448                 0.87834155     -137.789689
9.449                0.878127945     -138.083042
9.45                 0.877914786     -138.376984
9.451                0.877702086     -138.671511
9.452                0.877489856     -138.966622
9.453                0.877278111     -139.262315
9.454                0.877066863     -139.558587
9.455                0.876856125     -139.855436
9.456                0.876645909      -140.15286
9.457                0.876436229     -140.450857
9.458                0.876227099     -140.749424
9.459                 0.87601853     -141.048559
9.46                 0.875810536     -141.348259
9.461                0.875603131     -141.648522
9.462                0.875396328     -141.949346
9.463                0.875190139     -142.250727
9.464                0.874984579     -142.552663
9.465                 0.87477966     -142.855152
9.466                0.874575397     -143.158191
9.467                0.874371801     -143.461777
9.468                0.874168888     -143.765907
9.469                0.873966671     -144.070579
9.47                 0.873765162      -144.37579
9.471                0.873564376     -144.681536
9.472                0.873364326     -144.987815
9.473                0.873165026     -145.294625
9.474                 0.87296649     -145.601961
9.475                0.872768731     -145.909821
9.476                0.872571762     -146.218202
9.477                0.872375598       -146.5271
9.478                0.872180253     -146.836513
9.479                0.871985739     -147.146437
9.48                 0.871792071     -147.456869
9.481                0.871599263     -147.767806
9.482                0.871407328     -148.079244
9.483                 0.87121628     -148.391181
9.484                0.871026133     -148.703612
9.485                0.870836901     -149.016534
9.486                0.870648597     -149.329943
9.487                0.870461235     -149.643837
9.488                0.870274829     -149.958211
9.489                0.870089393     -150.273063
9.49                  0.86990494     -150.588387
9.491                0.869721484     -150.904181
9.492                 0.86953904     -151.220441
9.493                 0.86935762     -151.537163
9.494                0.869177238     -151.854344
9.495                0.868997908     -152.171978
9.496                0.868819644     -152.490064
9.497                0.868642459     -152.808595
9.498                0.868466367      -153.12757
9.499                0.868291381     -153.446983
9.5                  0.868117516     -153.766831
9.501                0.867944784     -154.087109
9.502                0.867773198     -154.407813
9.503                0.867602773      -154.72894
9.504                0.867433522     -155.050484
9.505                0.867265458     -155.372443
9.506                0.867098594     -155.694811
9.507                0.866932944     -156.017584
9.508                 0.86676852     -156.340758
9.509                0.866605337     -156.664329
9.51                 0.866443406     -156.988291
9.511                0.866282742     -157.312641
9.512                0.866123356     -157.637374
9.513                0.865965262     -157.962486
9.514                0.865808473     -158.287972
9.515                0.865653002     -158.613827
9.516                0.865498861     -158.940048
9.517                0.865346062     -159.266628
9.518                0.865194619     -159.593563
9.519                0.865044544      -159.92085
9.52                 0.864895849     -160.248482
9.521                0.864748546     -160.576456
9.522                0.864602648     -160.904766
9.523                0.864458167     -161.233407
9.524                0.864315115     -161.562375
9.525                0.864173504     -161.891664
9.526                0.864033346     -162.221271
9.527                0.863894653     -162.551189
9.528                0.863757435     -162.881413
9.529                0.863621705      -163.21194
9.53                 0.863487475     -163.542762
9.531                0.863354755     -163.873877
9.532                0.863223557     -164.205277
9.533                0.863093892     -164.536959
9.534                0.862965771     -164.868917
9.535                0.862839205     -165.201146
9.536                0.862714205      -165.53364
9.537                0.862590781     -165.866394
9.538                0.862468944     -166.199404
9.539                0.862348705     -166.532663
9.54                 0.862230073     -166.866166
9.541                 0.86211306     -167.199908
9.542                0.861997674     -167.533884
9.543                0.861883926     -167.868088
9.544                0.861771826     -168.202515
9.545                0.861661383     -168.537159
9.546                0.861552607     -168.872014
9.547                0.861445508     -169.207076
9.548                0.861340094     -169.542338
9.549                0.861236374     -169.877796
9.55                 0.861134358     -170.213443
9.551                0.861034054     -170.549274
9.552                0.860935472     -170.885284
9.553                0.860838618     -171.221466
9.554                0.860743503     -171.557815
9.555                0.860650134     -171.894326
9.556                0.860558519     -172.230993
9.557                0.860468665     -172.567809
9.558                0.860380582      -172.90477
9.559                0.860294275      -173.24187
9.56                 0.860209754     -173.579103
9.561                0.860127024     -173.916463
9.562                0.860046094     -174.253944
9.563                0.859966969     -174.591541
9.564                0.859889657     -174.929247
9.565                0.859814164     -175.267058
9.566                0.859740496     -175.604967
9.567                0.859668661     -175.942968
9.568                0.859598663     -176.281056
9.569                 0.85953051     -176.619224
9.57                 0.859464205     -176.957468
9.571                0.859399756      -177.29578
9.572                0.859337168     -177.634156
9.573                0.859276444     -177.972589
9.574                0.859217592     -178.311073
9.575                0.859160615     -178.649603
9.576                0.859105518     -178.988172
9.577                0.859052305     -179.326776
9.578                0.859000981     -179.665407
9.579                 0.85895155       179.99594
9.58                 0.858904016      179.657271
9.581                0.858858382      179.318592
9.582                0.858814652      178.979908
9.583                 0.85877283      178.641226
9.584                0.858732918      178.302552
9.585                 0.85869492      177.963891
9.586                0.858658838      177.625249
9.587                0.858624676      177.286633
9.588                0.858592434      176.948048
9.589                0.858562116        176.6095
9.59                 0.858533724      176.270994
9.591                0.858507259      175.932538
9.592                0.858482723      175.594136
9.593                0.858460118      175.255794
9.594                0.858439444      174.917519
9.595                0.858420704      174.579317
9.596                0.858403897      174.241192
9.597                0.858389025      173.903151
9.598                0.858376089        173.5652
9.599                0.858365087      173.227345
9.6                  0.858356022      172.889591
9.601                0.858348891      172.551944