! TOUCHSTONE file generated by CST DESIGN STUDIO
! Date and time: Tue Feb  4 17:08:17 2025
! Project name: C:\Work\MatlabApps\UnitCellOptimizationMatlab\CST\unitcell.cst
! Tree item: Tasks\Sweep1\SPara1\S-Parameters
! Header version: 2024
! Port assignment regex: !\s*Touchstone port\s*([0-9]+)\s*=\s*(CST MWS port|CST DES external port|CST DES block port)\s*(.+)\s* \(\"(.*)\"\)(\s*mode\s*([0-9]+))?.*
! Touchstone port assignment:
! Touchstone port 1 = CST DES external port 1 ("")
# GHz S MA R 50
9                    0.969634113     -57.1081551
9.001                0.969574585     -57.1841347
9.002                0.969514875     -57.2602838
9.003                0.969454985     -57.3366031
9.004                0.969394912     -57.4130931
9.005                0.969334657     -57.4897543
9.006                0.969274219     -57.5665872
9.007                0.969213597     -57.6435924
9.008                0.969152791     -57.7207705
9.009                0.969091799     -57.7981219
9.01                 0.969030623     -57.8756471
9.011                 0.96896926     -57.9533469
9.012                 0.96890771     -58.0312216
9.013                0.968845973     -58.1092718
9.014                0.968784049     -58.1874981
9.015                0.968721935      -58.265901
9.016                0.968659633     -58.3444811
9.017                 0.96859714     -58.4232389
9.018                0.968534458      -58.502175
9.019                0.968471584     -58.5812899
9.02                 0.968408518     -58.6605842
9.021                0.968345261     -58.7400585
9.022                 0.96828181     -58.8197133
9.023                0.968218166     -58.8995492
9.024                0.968154328     -58.9795667
9.025                0.968090295     -59.0597665
9.026                0.968026067      -59.140149
9.027                0.967961643     -59.2207149
9.028                0.967897022     -59.3014647
9.029                0.967832203     -59.3823991
9.03                 0.967767187     -59.4635185
9.031                0.967701972     -59.5448237
9.032                0.967636559      -59.626315
9.033                0.967570945     -59.7079933
9.034                0.967505131     -59.7898589
9.035                0.967439115     -59.8719126
9.036                0.967372898     -59.9541549
9.037                0.967306479     -60.0365864
9.038                0.967239856     -60.1192076
9.039                 0.96717303     -60.2020193
9.04                 0.967105999      -60.285022
9.041                0.967038763     -60.3682163
9.042                0.966971322     -60.4516027
9.043                0.966903674      -60.535182
9.044                 0.96683582     -60.6189547
9.045                0.966767757     -60.7029214
9.046                0.966699487     -60.7870827
9.047                0.966631007     -60.8714393
9.048                0.966562318     -60.9559918
9.049                0.966493418     -61.0407407
9.05                 0.966424308     -61.1256868
9.051                0.966354986     -61.2108305
9.052                0.966285451     -61.2961727
9.053                0.966215704     -61.3817138
9.054                0.966145743     -61.4674545
9.055                0.966075567     -61.5533955
9.056                0.966005177     -61.6395373
9.057                0.965934571     -61.7258806
9.058                0.965863748     -61.8124261
9.059                0.965792709     -61.8991744
9.06                 0.965721451     -61.9861261
9.061                0.965649976     -62.0732818
9.062                0.965578281     -62.1606423
9.063                0.965506366     -62.2482082
9.064                0.965434231     -62.3359801
9.065                0.965361875     -62.4239587
9.066                0.965289297     -62.5121445
9.067                0.965216496     -62.6005384
9.068                0.965143472      -62.689141
9.069                0.965070224     -62.7779528
9.07                 0.964996752     -62.8669746
9.071                0.964923054     -62.9562071
9.072                 0.96484913     -63.0456508
9.073                 0.96477498     -63.1353066
9.074                0.964700602      -63.225175
9.075                0.964625996     -63.3152567
9.076                0.964551161     -63.4055525
9.077                0.964476096     -63.4960629
9.078                0.964400801     -63.5867888
9.079                0.964325276     -63.6777306
9.08                 0.964249518     -63.7688893
9.081                0.964173529     -63.8602653
9.082                0.964097306     -63.9518595
9.083                0.964020849     -64.0436726
9.084                0.963944158     -64.1357051
9.085                0.963867231     -64.2279579
9.086                0.963790069     -64.3204316
9.087                 0.96371267     -64.4131269
9.088                0.963635033     -64.5060446
9.089                0.963557159     -64.5991852
9.09                 0.963479046     -64.6925497
9.091                0.963400693     -64.7861386
9.092                0.963322099     -64.8799527
9.093                0.963243265     -64.9739927
9.094                0.963164189     -65.0682593
9.095                0.963084871     -65.1627533
9.096                 0.96300531     -65.2574753
9.097                0.962925504     -65.3524262
9.098                0.962845454     -65.4476065
9.099                0.962765159     -65.5430172
9.1                  0.962684617     -65.6386588
9.101                0.962603829     -65.7345322
9.102                0.962522793      -65.830638
9.103                0.962441509      -65.926977
9.104                0.962359976       -66.02355
9.105                0.962278193     -66.1203578
9.106                 0.96219616     -66.2174009
9.107                0.962113875     -66.3146803
9.108                0.962031339     -66.4121967
9.109                 0.96194855     -66.5099508
9.11                 0.961865507     -66.6079433
9.111                0.961782211     -66.7061751
9.112                0.961698659     -66.8046469
9.113                0.961614852     -66.9033595
9.114                0.961530788     -67.0023137
9.115                0.961446467     -67.1015101
9.116                0.961361889     -67.2009497
9.117                0.961277052     -67.3006331
9.118                0.961191955     -67.4005611
9.119                0.961106599     -67.5007346
9.12                 0.961020981     -67.6011543
9.121                0.960935102     -67.7018211
9.122                0.960848961     -67.8027356
9.123                0.960762557     -67.9038986
9.124                0.960675889     -68.0053111
9.125                0.960588956     -68.1069737
9.126                0.960501758     -68.2088874
9.127                0.960414294     -68.3110528
9.128                0.960326564     -68.4134707
9.129                0.960238566     -68.5161421
9.13                 0.960150299     -68.6190677
9.131                0.960061764     -68.7222482
9.132                0.959972959     -68.8256846
9.133                0.959883883     -68.9293777
9.134                0.959794537     -69.0333282
9.135                0.959704918      -69.137537
9.136                0.959615026     -69.2420049
9.137                0.959524862     -69.3467328
9.138                0.959434423     -69.4517214
9.139                0.959343709     -69.5569716
9.14                 0.959252719     -69.6624842
9.141                0.959161453     -69.7682602
9.142                 0.95906991     -69.8743002
9.143                0.958978089     -69.9806052
9.144                0.958885989      -70.087176
9.145                 0.95879361     -70.1940135
9.146                0.958700951     -70.3011185
9.147                0.958608011     -70.4084918
9.148                 0.95851479     -70.5161343
9.149                0.958421286     -70.6240469
9.15                 0.958327499     -70.7322305
9.151                0.958233428     -70.8406858
9.152                0.958139073     -70.9494138
9.153                0.958044433     -71.0584153
9.154                0.957949506     -71.1676912
9.155                0.957854293     -71.2772424
9.156                0.957758792     -71.3870698
9.157                0.957663004     -71.4971742
9.158                0.957566926     -71.6075565
9.159                0.957470559     -71.7182175
9.16                 0.957373901     -71.8291583
9.161                0.957276953     -71.9403797
9.162                0.957179712     -72.0518825
9.163                0.957082179     -72.1636677
9.164                0.956984353     -72.2757361
9.165                0.956886233     -72.3880887
9.166                0.956787818     -72.5007263
9.167                0.956689108     -72.6136499
9.168                0.956590102     -72.7268604
9.169                0.956490799     -72.8403587
9.17                 0.956391198     -72.9541456
9.171                0.956291299     -73.0682222
9.172                0.956191102     -73.1825893
9.173                0.956090604     -73.2972478
9.174                0.955989807     -73.4121987
9.175                0.955888708     -73.5274429
9.176                0.955787308     -73.6429814
9.177                0.955685605      -73.758815
9.178                0.955583599     -73.8749446
9.179                0.955481289     -73.9913713
9.18                 0.955378675      -74.108096
9.181                0.955275756     -74.2251195
9.182                 0.95517253     -74.3424429
9.183                0.955068999     -74.4600671
9.184                 0.95496516      -74.577993
9.185                0.954861013     -74.6962216
9.186                0.954756558     -74.8147539
9.187                0.954651793     -74.9335907
9.188                0.954546718     -75.0527331
9.189                0.954441333      -75.172182
9.19                 0.954335637     -75.2919384
9.191                0.954229629     -75.4120033
9.192                0.954123309     -75.5323775
9.193                0.954016675     -75.6530622
9.194                0.953909727     -75.7740582
9.195                0.953802465     -75.8953665
9.196                0.953694888     -76.0169881
9.197                0.953586996     -76.1389241
9.198                0.953478786     -76.2611753
9.199                 0.95337026     -76.3837428
9.2                  0.953261417     -76.5066275
9.201                0.953152255     -76.6298304
9.202                0.953042774     -76.7533526
9.203                0.952932974     -76.8771951
9.204                0.952822854     -77.0013587
9.205                0.952712413     -77.1258446
9.206                0.952601651     -77.2506537
9.207                0.952490567      -77.375787
9.208                0.952379161     -77.5012455
9.209                0.952267432     -77.6270303
9.21                 0.952155379     -77.7531424
9.211                0.952043002     -77.8795827
9.212                0.951930301     -78.0063524
9.213                0.951817274     -78.1334523
9.214                0.951703921     -78.2608836
9.215                0.951590242     -78.3886472
9.216                0.951476236     -78.5167442
9.217                0.951361903     -78.6451755
9.218                0.951247241     -78.7739424
9.219                0.951132251     -78.9030457
9.22                 0.951016932     -79.0324865
9.221                0.950901284     -79.1622658
9.222                0.950785305     -79.2923847
9.223                0.950668996     -79.4228442
9.224                0.950552356     -79.5536454
9.225                0.950435384     -79.6847893
9.226                 0.95031808      -79.816277
9.227                0.950200444     -79.9481094
9.228                0.950082475     -80.0802877
9.229                0.949964172     -80.2128129
9.23                 0.949845535     -80.3456861
9.231                0.949726565     -80.4789083
9.232                0.949607259     -80.6124806
9.233                0.949487618      -80.746404
9.234                0.949367641     -80.8806796
9.235                0.949247329     -81.0153085
9.236                 0.94912668     -81.1502918
9.237                0.949005694     -81.2856304
9.238                 0.94888437     -81.4213256
9.239                0.948762709     -81.5573782
9.24                  0.94864071     -81.6937896
9.241                0.948518373     -81.8305606
9.242                0.948395697     -81.9676924
9.243                0.948272682     -82.1051861
9.244                0.948149327     -82.2430427
9.245                0.948025633     -82.3812634
9.246                0.947901598     -82.5198492
9.247                0.947777223     -82.6588012
9.248                0.947652507     -82.7981205
9.249                0.947527451     -82.9378082
9.25                 0.947402053     -83.0778654
9.251                0.947276313     -83.2182932
9.252                0.947150231     -83.3590926
9.253                0.947023808     -83.5002648
9.254                0.946897042     -83.6418109
9.255                0.946769933      -83.783732
9.256                0.946642482     -83.9260291
9.257                0.946514687     -84.0687034
9.258                 0.94638655      -84.211756
9.259                0.946258069      -84.355188
9.26                 0.946129244     -84.4990005
9.261                0.946000076     -84.6431947
9.262                0.945870563     -84.7877715
9.263                0.945740707     -84.9327322
9.264                0.945610506     -85.0780778
9.265                0.945479961     -85.2238095
9.266                0.945349072     -85.3699283
9.267                0.945217838     -85.5164355
9.268                0.945086259     -85.6633321
9.269                0.944954336     -85.8106192
9.27                 0.944822068     -85.9582979
9.271                0.944689455     -86.1063694
9.272                0.944556497     -86.2548349
9.273                0.944423195     -86.4036953
9.274                0.944289548     -86.5529519
9.275                0.944155556     -86.7026058
9.276                0.944021219     -86.8526581
9.277                0.943886537     -87.0031099
9.278                0.943751511     -87.1539623
9.279                 0.94361614     -87.3052166
9.28                 0.943480424     -87.4568737
9.281                0.943344364     -87.6089349
9.282                 0.94320796     -87.7614012
9.283                0.943071211     -87.9142739
9.284                0.942934118      -88.067554
9.285                0.942796681     -88.2212426
9.286                0.942658901      -88.375341
9.287                0.942520777     -88.5298502
9.288                 0.94238231     -88.6847713
9.289                0.942243499     -88.8401056
9.29                 0.942104346     -88.9958541
9.291                 0.94196485     -89.1520179
9.292                0.941825012     -89.3085983
9.293                0.941684832     -89.4655963
9.294                0.941544309     -89.6230131
9.295                0.941403446     -89.7808497
9.296                0.941262241     -89.9391075
9.297                0.941120696     -90.0977874
9.298                0.940978811     -90.2568906
9.299                0.940836585     -90.4164182
9.3                   0.94069402     -90.5763714
9.301                0.940551116     -90.7367514
9.302                0.940407873     -90.8975592
9.303                0.940264293     -91.0587959
9.304                0.940120374     -91.2204628
9.305                0.939976119     -91.3825609
9.306                0.939831527     -91.5450914
9.307                0.939686598     -91.7080554
9.308                0.939541335     -91.8714541
9.309                0.939395737     -92.0352885
9.31                 0.939249804     -92.1995598
9.311                0.939103538     -92.3642691
9.312                0.938956939     -92.5294176
9.313                0.938810008     -92.6950064
9.314                0.938662745     -92.8610366
9.315                0.938515152     -93.0275093
9.316                0.938367229     -93.1944256
9.317                0.938218976     -93.3617867
9.318                0.938070395     -93.5295938
9.319                0.937921486     -93.6978478
9.32                 0.937772251       -93.86655
9.321                0.937622689     -94.0357014
9.322                0.937472803     -94.2053031
9.323                0.937322593     -94.3753564
9.324                0.937172059     -94.5458622
9.325                0.937021203     -94.7168218
9.326                0.936870027     -94.8882361
9.327                 0.93671853     -95.0601063
9.328                0.936566714     -95.2324336
9.329                0.936414579      -95.405219
9.33                 0.936262128     -95.5784635
9.331                0.936109362     -95.7521684
9.332                 0.93595628     -95.9263348
9.333                0.935802885     -96.1009636
9.334                0.935649178      -96.276056
9.335                0.935495159      -96.451613
9.336                0.935340831     -96.6276359
9.337                0.935186195     -96.8041256
9.338                0.935031251     -96.9810832
9.339                0.934876001     -97.1585098
9.34                 0.934720447     -97.3364065
9.341                 0.93456459     -97.5147744
9.342                0.934408431     -97.6936144
9.343                0.934251972     -97.8729278
9.344                0.934095214     -98.0527155
9.345                0.933938159     -98.2329785
9.346                0.933780809     -98.4137181
9.347                0.933623164     -98.5949351
9.348                0.933465227     -98.7766307
9.349                   0.933307     -98.9588059
9.35                 0.933148483     -99.1414618
9.351                0.932989678     -99.3245993
9.352                0.932830588     -99.5082195
9.353                0.932671215     -99.6923234
9.354                0.932511558     -99.8769121
9.355                0.932351622     -100.061987
9.356                0.932191408     -100.247548
9.357                0.932030916     -100.433597
9.358                0.931870151     -100.620135
9.359                0.931709112     -100.807162
9.36                 0.931547803     -100.994681
9.361                0.931386226     -101.182691
9.362                0.931224382     -101.371194
9.363                0.931062273     -101.560191
9.364                0.930899903     -101.749682
9.365                0.930737272      -101.93967
9.366                0.930574383     -102.130154
9.367                0.930411239     -102.321135
9.368                0.930247842     -102.512615
9.369                0.930084193     -102.704595
9.37                 0.929920296     -102.897075
9.371                0.929756153     -103.090056
9.372                0.929591765      -103.28354
9.373                0.929427137     -103.477527
9.374                0.929262269     -103.672019
9.375                0.929097166     -103.867015
9.376                0.928931828     -104.062517
9.377                 0.92876626     -104.258527
9.378                0.928600463     -104.455044
9.379                 0.92843444     -104.652069
9.38                 0.928268194     -104.849605
9.381                0.928101728      -105.04765
9.382                0.927935045     -105.246207
9.383                0.927768147     -105.445276
9.384                0.927601037     -105.644858
9.385                0.927433719     -105.844954
9.386                0.927266195     -106.045564
9.387                0.927098469      -106.24669
9.388                0.926930543     -106.448332
9.389                 0.92676242     -106.650491
9.39                 0.926594104     -106.853169
9.391                0.926425597     -107.056364
9.392                0.926256904      -107.26008
9.393                0.926088027     -107.464315
9.394                 0.92591897     -107.669071
9.395                0.925749735      -107.87435
9.396                0.925580327      -108.08015
9.397                0.925410749     -108.286474
9.398                0.925241005     -108.493322
9.399                0.925071097     -108.700694
9.4                  0.924901029     -108.908592
9.401                0.924730806     -109.117016
9.402                 0.92456043     -109.325967
9.403                0.924389906     -109.535445
9.404                0.924219237     -109.745451
9.405                0.924048427     -109.955986
9.406                 0.92387748      -110.16705
9.407                  0.9237064     -110.378645
9.408                 0.92353519     -110.590769
9.409                0.923363855     -110.803426
9.41                 0.923192399     -111.016614
9.411                0.923020825     -111.230334
9.412                0.922849138     -111.444588
9.413                0.922677343     -111.659375
9.414                0.922505443     -111.874697
9.415                0.922333442     -112.090553
9.416                0.922161345     -112.306944
9.417                0.921989157     -112.523871
9.418                0.921816881     -112.741334
9.419                0.921644522     -112.959334
9.42                 0.921472085     -113.177871
9.421                0.921299573     -113.396946
9.422                0.921126993     -113.616559
9.423                0.920954348     -113.836711
9.424                0.920781643     -114.057401
9.425                0.920608883     -114.278631
9.426                0.920436072     -114.500401
9.427                0.920263216     -114.722711
9.428                0.920090319     -114.945562
9.429                0.919917387     -115.168954
9.43                 0.919744424     -115.392886
9.431                0.919571435     -115.617361
9.432                0.919398425     -115.842377
9.433                  0.9192254     -116.067936
9.434                0.919052365     -116.294037
9.435                0.918879324     -116.520681
9.436                0.918706284     -116.747868
9.437                0.918533249     -116.975598
9.438                0.918360225     -117.203872
9.439                0.918187217     -117.432689
9.44                 0.918014232     -117.662051
9.441                0.917841273     -117.891956
9.442                0.917668347     -118.122405
9.443                 0.91749546     -118.353399
9.444                0.917322617     -118.584938
9.445                0.917149824     -118.817021
9.446                0.916977087     -119.049648
9.447                0.916804411     -119.282821
9.448                0.916631803     -119.516538
9.449                0.916459267       -119.7508
9.45                 0.916286811     -119.985607
9.451                0.916114441     -120.220959
9.452                0.915942161     -120.456855
9.453                0.915769979     -120.693297
9.454                0.915597901     -120.930283
9.455                0.915425932     -121.167814
9.456                 0.91525408     -121.405889
9.457                 0.91508235     -121.644509
9.458                0.914910748     -121.883674
9.459                0.914739282     -122.123382
9.46                 0.914567957     -122.363635
9.461                 0.91439678     -122.604432
9.462                0.914225758     -122.845772
9.463                0.914054897     -123.087655
9.464                0.913884204     -123.330082
9.465                0.913713686     -123.573052
9.466                0.913543349     -123.816564
9.467                0.913373199     -124.060619
9.468                0.913203245     -124.305215
9.469                0.913033492     -124.550353
9.47                 0.912863948     -124.796033
9.471                 0.91269462     -125.042253
9.472                0.912525514     -125.289014
9.473                0.912356638     -125.536315
9.474                0.912187999     -125.784155
9.475                0.912019603     -126.032535
9.476                0.911851459     -126.281453
9.477                0.911683573     -126.530909
9.478                0.911515953     -126.780902
9.479                0.911348605     -127.031433
9.48                 0.911181538       -127.2825
9.481                0.911014758     -127.534103
9.482                0.910848273      -127.78624
9.483                0.910682091     -128.038912
9.484                0.910516219     -128.292118
9.485                0.910350665     -128.545857
9.486                0.910185436     -128.800129
9.487                0.910020539     -129.054931
9.488                0.909855984     -129.310265
9.489                0.909691776     -129.566128
9.49                 0.909527925     -129.822521
9.491                0.909364437     -130.079442
9.492                0.909201321      -130.33689
9.493                0.909038585     -130.594865
9.494                0.908876236     -130.853365
9.495                0.908714282      -131.11239
9.496                0.908552731     -131.371939
9.497                0.908391592      -131.63201
9.498                0.908230873     -131.892603
9.499                 0.90807058     -132.153717
9.5                  0.907910723     -132.415349
9.501                 0.90775131     -132.677501
9.502                0.907592349     -132.940169
9.503                0.907433848     -133.203354
9.504                0.907275815     -133.467053
9.505                0.907118258     -133.731266
9.506                0.906961186     -133.995992
9.507                0.906804608     -134.261228
9.508                 0.90664853     -134.526975
9.509                0.906492963      -134.79323
9.51                 0.906337914     -135.059992
9.511                0.906183391     -135.327261
9.512                0.906029403     -135.595033
9.513                0.905875959     -135.863309
9.514                0.905723067     -136.132086
9.515                0.905570735     -136.401363
9.516                0.905418972     -136.671139
9.517                0.905267787     -136.941412
9.518                0.905117188      -137.21218
9.519                0.904967183     -137.483443
9.52                 0.904817782     -137.755197
9.521                0.904668993     -138.027442
9.522                0.904520824     -138.300176
9.523                0.904373284     -138.573397
9.524                0.904226382     -138.847104
9.525                0.904080127     -139.121295
9.526                0.903934526     -139.395967
9.527                 0.90378959     -139.671119
9.528                0.903645326      -139.94675
9.529                0.903501743     -140.222857
9.53                  0.90335885     -140.499439
9.531                0.903216656     -140.776493
9.532                0.903075169     -141.054018
9.533                0.902934398     -141.332012
9.534                0.902794352     -141.610472
9.535                 0.90265504     -141.889396
9.536                 0.90251647     -142.168783
9.537                0.902378651     -142.448631
9.538                0.902241592     -142.728936
9.539                0.902105301     -143.009698
9.54                 0.901969787     -143.290914
9.541                 0.90183506     -143.572581
9.542                0.901701127     -143.854697
9.543                0.901567998     -144.137261
9.544                 0.90143568     -144.420269
9.545                0.901304184      -144.70372
9.546                0.901173517     -144.987611
9.547                0.901043688      -145.27194
9.548                0.900914706     -145.556704
9.549                0.900786579     -145.841901
9.55                 0.900659317     -146.127528
9.551                0.900532927     -146.413583
9.552                0.900407418     -146.700063
9.553                  0.9002828     -146.986966
9.554                0.900159079      -147.27429
9.555                0.900036266      -147.56203
9.556                0.899914369     -147.850185
9.557                0.899793395     -148.138753
9.558                0.899673354      -148.42773
9.559                0.899554254     -148.717113
9.56                 0.899436103     -149.006901
9.561                0.899318909      -149.29709
9.562                0.899202682     -149.587676
9.563                 0.89908743     -149.878659
9.564                 0.89897316     -150.170034
9.565                0.898859881     -150.461798
9.566                0.898747601     -150.753949
9.567                0.898636328     -151.046484
9.568                0.898526071     -151.339399
9.569                0.898416838     -151.632693
9.57                 0.898308636      -151.92636
9.571                0.898201474       -152.2204
9.572                 0.89809536     -152.514808
9.573                0.897990302     -152.809581
9.574                0.897886307     -153.104716
9.575                0.897783383      -153.40021
9.576                0.897681539      -153.69606
9.577                0.897580782     -153.992262
9.578                0.897481119     -154.288814
9.579                0.897382559     -154.585711
9.58                 0.897285109     -154.882951
9.581                0.897188776      -155.18053
9.582                0.897093568     -155.478445
9.583                0.896999492     -155.776693
9.584                0.896906557     -156.075269
9.585                0.896814768     -156.374171
9.586                0.896724134     -156.673396
9.587                0.896634661     -156.972938
9.588                0.896546356     -157.272796
9.589                0.896459228     -157.572965
9.59                 0.896373282     -157.873443
9.591                0.896288526     -158.174224
9.592                0.896204966     -158.475306
9.593                0.896122609     -158.776685
9.594                0.896041463     -159.078358
9.595                0.895961533      -159.38032
9.596                0.895882826     -159.682568
9.597                0.895805349     -159.985098
9.598                0.895729108     -160.287907
9.599                0.895654109      -160.59099
9.6                   0.89558036     -160.894344
9.601                0.895507865     -161.197965