! TOUCHSTONE file generated by CST DESIGN STUDIO
! Date and time: Tue Feb  4 17:05:31 2025
! Project name: C:\Work\MatlabApps\UnitCellOptimizationMatlab\CST\unitcell.cst
! Tree item: Tasks\Sweep1\SPara1\S-Parameters
! Header version: 2024
! Port assignment regex: !\s*Touchstone port\s*([0-9]+)\s*=\s*(CST MWS port|CST DES external port|CST DES block port)\s*(.+)\s* \(\"(.*)\"\)(\s*mode\s*([0-9]+))?.*
! Touchstone port assignment:
! Touchstone port 1 = CST DES external port 1 ("")
# GHz S MA R 50
9                    0.967695585     -51.2538205
9.001                 0.96763054     -51.3198869
9.002                0.967565292     -51.3860935
9.003                 0.96749984     -51.4524407
9.004                0.967434185     -51.5189289
9.005                0.967368324     -51.5855586
9.006                0.967302258     -51.6523302
9.007                0.967235986     -51.7192442
9.008                0.967169507      -51.786301
9.009                 0.96710282     -51.8535011
9.01                 0.967035926     -51.9208448
9.011                0.966968823     -51.9883326
9.012                0.966901511     -52.0559651
9.013                0.966833989     -52.1237425
9.014                0.966766256     -52.1916655
9.015                0.966698312     -52.2597343
9.016                0.966630156     -52.3279496
9.017                0.966561787     -52.3963117
9.018                0.966493206     -52.4648211
9.019                 0.96642441     -52.5334783
9.02                   0.9663554     -52.6022837
9.021                0.966286175     -52.6712378
9.022                0.966216734      -52.740341
9.023                0.966147077     -52.8095938
9.024                0.966077202     -52.8789968
9.025                 0.96600711     -52.9485502
9.026                0.965936799     -53.0182547
9.027                0.965866269     -53.0881107
9.028                0.965795519     -53.1581187
9.029                0.965724548     -53.2282791
9.03                 0.965653357     -53.2985925
9.031                0.965581943     -53.3690592
9.032                0.965510307     -53.4396799
9.033                0.965438448     -53.5104549
9.034                0.965366364     -53.5813848
9.035                0.965294056       -53.65247
9.036                0.965221523      -53.723711
9.037                0.965148764     -53.7951084
9.038                0.965075777     -53.8666626
9.039                0.965002564     -53.9383741
9.04                 0.964929122     -54.0102434
9.041                0.964855451      -54.082271
9.042                0.964781551     -54.1544575
9.043                 0.96470742     -54.2268032
9.044                0.964633059     -54.2993088
9.045                0.964558465     -54.3719746
9.046                 0.96448364     -54.4448013
9.047                0.964408581     -54.5177893
9.048                0.964333288     -54.5909392
9.049                 0.96425776     -54.6642515
9.05                 0.964181997     -54.7377266
9.051                0.964105998     -54.8113651
9.052                0.964029762     -54.8851675
9.053                0.963953289     -54.9591343
9.054                0.963876577     -55.0332661
9.055                0.963799626     -55.1075634
9.056                0.963722435     -55.1820266
9.057                0.963645004     -55.2566564
9.058                0.963567332     -55.3314533
9.059                0.963489417     -55.4064178
9.06                 0.963411259     -55.4815504
9.061                0.963332858     -55.5568516
9.062                0.963254213     -55.6323221
9.063                0.963175322     -55.7079623
9.064                0.963096186     -55.7837728
9.065                0.963016803     -55.8597542
9.066                0.962937172     -55.9359069
9.067                0.962857294     -56.0122315
9.068                0.962777166     -56.0887286
9.069                0.962696789     -56.1653988
9.07                 0.962616161     -56.2422425
9.071                0.962535281     -56.3192604
9.072                 0.96245415     -56.3964529
9.073                0.962372766     -56.4738208
9.074                0.962291128     -56.5513644
9.075                0.962209235     -56.6290844
9.076                0.962127087     -56.7069814
9.077                0.962044684      -56.785056
9.078                0.961962023     -56.8633086
9.079                0.961879104     -56.9417398
9.08                 0.961795927     -57.0203504
9.081                0.961712491     -57.0991407
9.082                0.961628795     -57.1781114
9.083                0.961544838     -57.2572632
9.084                0.961460619     -57.3365964
9.085                0.961376137     -57.4161119
9.086                0.961291392       -57.49581
9.087                0.961206383     -57.5756916
9.088                0.961121108      -57.655757
9.089                0.961035568     -57.7360069
9.09                 0.960949761      -57.816442
9.091                0.960863687     -57.8970627
9.092                0.960777344     -57.9778698
9.093                0.960690732     -58.0588638
9.094                 0.96060385     -58.1400453
9.095                0.960516697      -58.221415
9.096                0.960429272     -58.3029734
9.097                0.960341575     -58.3847211
9.098                0.960253604     -58.4666588
9.099                0.960165359     -58.5487871
9.1                  0.960076839     -58.6311066
9.101                0.959988042     -58.7136179
9.102                0.959898969     -58.7963217
9.103                0.959809618     -58.8792186
9.104                0.959719988     -58.9623091
9.105                0.959630079      -59.045594
9.106                 0.95953989     -59.1290738
9.107                0.959449419     -59.2127493
9.108                0.959358666      -59.296621
9.109                 0.95926763     -59.3806896
9.11                  0.95917631     -59.4649556
9.111                0.959084706     -59.5494199
9.112                0.958992815      -59.634083
9.113                0.958900639     -59.7189455
9.114                0.958808175     -59.8040081
9.115                0.958715422     -59.8892715
9.116                 0.95862238     -59.9747364
9.117                0.958529048     -60.0604033
9.118                0.958435426     -60.1462729
9.119                0.958341511      -60.232346
9.12                 0.958247303     -60.3186231
9.121                0.958152802      -60.405105
9.122                0.958058006     -60.4917923
9.123                0.957962914     -60.5786857
9.124                0.957867526     -60.6657858
9.125                 0.95777184     -60.7530934
9.126                0.957675857      -60.840609
9.127                0.957579574     -60.9283335
9.128                 0.95748299     -61.0162675
9.129                0.957386106     -61.1044117
9.13                  0.95728892     -61.1927667
9.131                0.957191431     -61.2813333
9.132                0.957093638     -61.3701121
9.133                 0.95699554     -61.4591039
9.134                0.956897136     -61.5483094
9.135                0.956798426     -61.6377292
9.136                0.956699408      -61.727364
9.137                0.956600081     -61.8172146
9.138                0.956500445     -61.9072818
9.139                0.956400498     -61.9975661
9.14                  0.95630024     -62.0880683
9.141                 0.95619967     -62.1787891
9.142                0.956098786     -62.2697293
9.143                0.955997588     -62.3608896
9.144                0.955896075     -62.4522707
9.145                0.955794246     -62.5438732
9.146                0.955692099     -62.6356981
9.147                0.955589635     -62.7277459
9.148                0.955486851     -62.8200175
9.149                0.955383747     -62.9125135
9.15                 0.955280323     -63.0052348
9.151                0.955176576      -63.098182
9.152                0.955072506     -63.1913559
9.153                0.954968112     -63.2847573
9.154                0.954863394     -63.3783868
9.155                0.954758349     -63.4722453
9.156                0.954652978     -63.5663336
9.157                0.954547279     -63.6606523
9.158                0.954441251     -63.7552022
9.159                0.954334893     -63.8499842
9.16                 0.954228204     -63.9449989
9.161                0.954121183     -64.0402472
9.162                 0.95401383     -64.1357298
9.163                0.953906143     -64.2314475
9.164                0.953798121     -64.3274011
9.165                0.953689764     -64.4235913
9.166                0.953581069      -64.520019
9.167                0.953472037     -64.6166848
9.168                0.953362666     -64.7135898
9.169                0.953252955     -64.8107345
9.17                 0.953142904     -64.9081198
9.171                0.953032511     -65.0057466
9.172                0.952921774     -65.1036155
9.173                0.952810695     -65.2017275
9.174                 0.95269927     -65.3000833
9.175                  0.9525875     -65.3986837
9.176                0.952475382     -65.4975296
9.177                0.952362917     -65.5966217
9.178                0.952250103     -65.6959609
9.179                 0.95213694      -65.795548
9.18                 0.952023425     -65.8953838
9.181                0.951909558     -65.9954691
9.182                0.951795339     -66.0958049
9.183                0.951680766     -66.1963918
9.184                0.951565837     -66.2972308
9.185                0.951450553     -66.3983227
9.186                0.951334912     -66.4996683
9.187                0.951218913     -66.6012685
9.188                0.951102555     -66.7031241
9.189                0.950985837     -66.8052359
9.19                 0.950868757     -66.9076049
9.191                0.950751316     -67.0102318
9.192                0.950633511     -67.1131176
9.193                0.950515343      -67.216263
9.194                0.950396809     -67.3196691
9.195                0.950277909     -67.4233365
9.196                0.950158642     -67.5272662
9.197                0.950039006     -67.6314591
9.198                0.949919002     -67.7359161
9.199                0.949798627     -67.8406379
9.2                   0.94967788     -67.9456256
9.201                0.949556762     -68.0508799
9.202                 0.94943527     -68.1564018
9.203                0.949313403     -68.2621922
9.204                0.949191161      -68.368252
9.205                0.949068543     -68.4745819
9.206                0.948945547     -68.5811831
9.207                0.948822173     -68.6880563
9.208                0.948698419     -68.7952025
9.209                0.948574285     -68.9026225
9.21                 0.948449768     -69.0103173
9.211                 0.94832487     -69.1182878
9.212                0.948199587     -69.2265349
9.213                 0.94807392     -69.3350595
9.214                0.947947868     -69.4438626
9.215                0.947821428     -69.5529451
9.216                0.947694601     -69.6623079
9.217                0.947567385     -69.7719519
9.218                0.947439779     -69.8818781
9.219                0.947311782     -69.9920874
9.22                 0.947183394     -70.1025808
9.221                0.947054612     -70.2133592
9.222                0.946925437     -70.3244235
9.223                0.946795867     -70.4357747
9.224                0.946665901     -70.5474137
9.225                0.946535538     -70.6593416
9.226                0.946404777     -70.7715592
9.227                0.946273617     -70.8840676
9.228                0.946142057     -70.9968676
9.229                0.946010096     -71.1099603
9.23                 0.945877733     -71.2233466
9.231                0.945744967     -71.3370276
9.232                0.945611797     -71.4510041
9.233                0.945478222     -71.5652772
9.234                0.945344242     -71.6798478
9.235                0.945209854     -71.7947169
9.236                0.945075058     -71.9098856
9.237                0.944939853     -72.0253548
9.238                0.944804238     -72.1411255
9.239                0.944668212     -72.2571987
9.24                 0.944531774     -72.3735754
9.241                0.944394923     -72.4902566
9.242                0.944257659     -72.6072433
9.243                0.944119979     -72.7245366
9.244                0.943981883     -72.8421374
9.245                0.943843371     -72.9600468
9.246                0.943704441     -73.0782657
9.247                0.943565092     -73.1967953
9.248                0.943425323     -73.3156364
9.249                0.943285133     -73.4347903
9.25                 0.943144522     -73.5542578
9.251                0.943003488       -73.67404
9.252                 0.94286203      -73.794138
9.253                0.942720148     -73.9145528
9.254                0.942577841     -74.0352854
9.255                0.942435107     -74.1563369
9.256                0.942291945     -74.2777083
9.257                0.942148356     -74.3994008
9.258                0.942004337     -74.5214152
9.259                0.941859888     -74.6437528
9.26                 0.941715008     -74.7664146
9.261                0.941569696     -74.8894015
9.262                0.941423951     -75.0127148
9.263                0.941277772     -75.1363554
9.264                0.941131159     -75.2603245
9.265                 0.94098411     -75.3846231
9.266                0.940836624     -75.5092523
9.267                0.940688701     -75.6342131
9.268                 0.94054034     -75.7595067
9.269                 0.94039154     -75.8851342
9.27                   0.9402423     -76.0110966
9.271                0.940092619      -76.137395
9.272                0.939942496     -76.2640305
9.273                0.939791931     -76.3910043
9.274                0.939640922     -76.5183174
9.275                0.939489469      -76.645971
9.276                0.939337571      -76.773966
9.277                0.939185227     -76.9023038
9.278                0.939032436     -77.0309853
9.279                0.938879198     -77.1600116
9.28                 0.938725512      -77.289384
9.281                0.938571376     -77.4191035
9.282                0.938416791     -77.5491712
9.283                0.938261754     -77.6795884
9.284                0.938106267      -77.810356
9.285                0.937950327     -77.9414752
9.286                0.937793934     -78.0729473
9.287                0.937637087     -78.2047732
9.288                0.937479786     -78.3369542
9.289                 0.93732203     -78.4694914
9.29                 0.937163817     -78.6023859
9.291                0.937005148      -78.735639
9.292                0.936846022     -78.8692516
9.293                0.936686438     -79.0032251
9.294                0.936526394     -79.1375605
9.295                0.936365892     -79.2722591
9.296                0.936204929     -79.4073219
9.297                0.936043505     -79.5427501
9.298                 0.93588162      -79.678545
9.299                0.935719273     -79.8147077
9.3                  0.935556463     -79.9512393
9.301                 0.93539319      -80.088141
9.302                0.935229453     -80.2254141
9.303                0.935065251     -80.3630596
9.304                0.934900585     -80.5010788
9.305                0.934735452     -80.6394729
9.306                0.934569853      -80.778243
9.307                0.934403788     -80.9173903
9.308                0.934237255     -81.0569161
9.309                0.934070254     -81.1968214
9.31                 0.933902784     -81.3371076
9.311                0.933734846     -81.4777758
9.312                0.933566438     -81.6188273
9.313                0.933397561     -81.7602631
9.314                0.933228213     -81.9020846
9.315                0.933058394     -82.0442929
9.316                0.932888104     -82.1868893
9.317                0.932717342     -82.3298749
9.318                0.932546108      -82.473251
9.319                0.932374402     -82.6170188
9.32                 0.932202222     -82.7611795
9.321                 0.93202957     -82.9057343
9.322                0.931856443     -83.0506845
9.323                0.931682843     -83.1960312
9.324                0.931508768     -83.3417758
9.325                0.931334219     -83.4879194
9.326                0.931159195     -83.6344633
9.327                0.930983696     -83.7814087
9.328                0.930807721     -83.9287568
9.329                 0.93063127     -84.0765089
9.33                 0.930454344     -84.2246662
9.331                0.930276941       -84.37323
9.332                0.930099062     -84.5222014
9.333                0.929920706     -84.6715818
9.334                0.929741874     -84.8213724
9.335                0.929562565     -84.9715744
9.336                0.929382779      -85.122189
9.337                0.929202515     -85.2732176
9.338                0.929021775     -85.4246614
9.339                0.928840557     -85.5765217
9.34                 0.928658862     -85.7287996
9.341                 0.92847669     -85.8814964
9.342                 0.92829404     -86.0346135
9.343                0.928110913      -86.188152
9.344                0.927927309     -86.3421133
9.345                0.927743227     -86.4964985
9.346                0.927558668      -86.651309
9.347                0.927373632      -86.806546
9.348                0.927188119     -86.9622107
9.349                0.927002129     -87.1183045
9.35                 0.926815662     -87.2748286
9.351                0.926628719     -87.4317843
9.352                0.926441299     -87.5891729
9.353                0.926253403     -87.7469955
9.354                0.926065031     -87.9052535
9.355                0.925876184     -88.0639482
9.356                0.925686861     -88.2230808
9.357                0.925497063     -88.3826526
9.358                0.925306791     -88.5426649
9.359                0.925116044      -88.703119
9.36                 0.924924823      -88.864016
9.361                0.924733129     -89.0253574
9.362                0.924540961     -89.1871444
9.363                0.924348321     -89.3493781
9.364                0.924155209     -89.5120601
9.365                0.923961625     -89.6751914
9.366                 0.92376757     -89.8387734
9.367                0.923573044     -90.0028073
9.368                0.923378048     -90.1672945
9.369                0.923182584     -90.3322362
9.37                  0.92298665     -90.4976337
9.371                0.922790249     -90.6634883
9.372                 0.92259338     -90.8298012
9.373                0.922396044     -90.9965737
9.374                0.922198243     -91.1638072
9.375                0.921999977     -91.3315027
9.376                0.921801247     -91.4996618
9.377                0.921602054     -91.6682855
9.378                0.921402398     -91.8373753
9.379                 0.92120228     -92.0069323
9.38                 0.921001702     -92.1769579
9.381                0.920800665     -92.3474533
9.382                0.920599169     -92.5184198
9.383                0.920397215     -92.6898586
9.384                0.920194805     -92.8617711
9.385                 0.91999194     -93.0341584
9.386                0.919788621      -93.207022
9.387                0.919584848     -93.3803629
9.388                0.919380624     -93.5541826
9.389                 0.91917595     -93.7284822
9.39                 0.918970826      -93.903263
9.391                0.918765254     -94.0785263
9.392                0.918559236     -94.2542734
9.393                0.918352773     -94.4305055
9.394                0.918145866     -94.6072238
9.395                0.917938516     -94.7844296
9.396                0.917730726     -94.9621242
9.397                0.917522497     -95.1403088
9.398                 0.91731383     -95.3189847
9.399                0.917104727     -95.4981531
9.4                   0.91689519     -95.6778152
9.401                 0.91668522     -95.8579723
9.402                0.916474819     -96.0386257
9.403                0.916263989     -96.2197765
9.404                0.916052732      -96.401426
9.405                0.915841049     -96.5835755
9.406                0.915628943     -96.7662261
9.407                0.915416415      -96.949379
9.408                0.915203467     -97.1330356
9.409                0.914990102      -97.317197
9.41                 0.914776321     -97.5018645
9.411                0.914562126     -97.6870392
9.412                0.914347521     -97.8727224
9.413                0.914132506     -98.0589152
9.414                0.913917085     -98.2456189
9.415                0.913701259     -98.4328346
9.416                 0.91348503     -98.6205636
9.417                0.913268402     -98.8088071
9.418                0.913051377     -98.9975662
9.419                0.912833956     -99.1868421
9.42                 0.912616143      -99.376636
9.421                 0.91239794     -99.5669491
9.422                 0.91217935     -99.7577825
9.423                0.911960375     -99.9491374
9.424                0.911741019     -100.141015
9.425                0.911521283     -100.333416
9.426                0.911301171     -100.526343
9.427                0.911080686     -100.719795
9.428                 0.91085983     -100.913775
9.429                0.910638606     -101.108283
9.43                 0.910417018      -101.30332
9.431                0.910195068     -101.498888
9.432                 0.90997276     -101.694988
9.433                0.909750097     -101.891621
9.434                0.909527082     -102.088788
9.435                0.909303717      -102.28649
9.436                0.909080008     -102.484727
9.437                0.908855956     -102.683503
9.438                0.908631566     -102.882816
9.439                0.908406841     -103.082669
9.44                 0.908181784     -103.283062
9.441                0.907956399     -103.483997
9.442                 0.90773069     -103.685474
9.443                 0.90750466     -103.887495
9.444                0.907278314     -104.090061
9.445                0.907051654     -104.293172
9.446                0.906824685      -104.49683
9.447                0.906597411     -104.701035
9.448                0.906369836      -104.90579
9.449                0.906141964     -105.111094
9.45                 0.905913798     -105.316948
9.451                0.905685344     -105.523355
9.452                0.905456605     -105.730314
9.453                0.905227586     -105.937826
9.454                0.904998291     -106.145894
9.455                0.904768724     -106.354516
9.456                 0.90453889     -106.563695
9.457                0.904308794     -106.773432
9.458                 0.90407844     -106.983727
9.459                0.903847832     -107.194581
9.46                 0.903616976     -107.405995
9.461                0.903385876      -107.61797
9.462                0.903154537     -107.830507
9.463                0.902922965     -108.043607
9.464                0.902691163      -108.25727
9.465                0.902459137     -108.471497
9.466                0.902226892      -108.68629
9.467                0.901994434     -108.901649
9.468                0.901761767     -109.117575
9.469                0.901528897     -109.334069
9.47                 0.901295829     -109.551131
9.471                0.901062569     -109.768763
9.472                0.900829122     -109.986964
9.473                0.900595494     -110.205736
9.474                 0.90036169      -110.42508
9.475                0.900127717     -110.644996
9.476                0.899893579     -110.865485
9.477                0.899659282     -111.086548
9.478                0.899424834     -111.308185
9.479                0.899190239     -111.530397
9.48                 0.898955503     -111.753185
9.481                0.898720634     -111.976549
9.482                0.898485636     -112.200491
9.483                0.898250516     -112.425009
9.484                0.898015281     -112.650107
9.485                0.897779937     -112.875783
9.486                 0.89754449     -113.102038
9.487                0.897308947     -113.328873
9.488                0.897073315     -113.556289
9.489                0.896837599     -113.784286
9.49                 0.896601808     -114.012865
9.491                0.896365947     -114.242026
9.492                0.896130024     -114.471769
9.493                0.895894045     -114.702095
9.494                0.895658018     -114.933005
9.495                 0.89542195     -115.164499
9.496                0.895185848     -115.396577
9.497                0.894949718      -115.62924
9.498                 0.89471357     -115.862489
9.499                0.894477409     -116.096322
9.5                  0.894241243     -116.330742
9.501                 0.89400508     -116.565748
9.502                0.893768927     -116.801341
9.503                0.893532793      -117.03752
9.504                0.893296684     -117.274287
9.505                0.893060609     -117.511641
9.506                0.892824576     -117.749583
9.507                0.892588592     -117.988112
9.508                0.892352666      -118.22723
9.509                0.892116805     -118.466936
9.51                 0.891881019     -118.707231
9.511                0.891645314     -118.948114
9.512                  0.8914097     -119.189586
9.513                0.891174184     -119.431647
9.514                0.890938776     -119.674297
9.515                0.890703484     -119.917537
9.516                0.890468316     -120.161365
9.517                0.890233282     -120.405782
9.518                0.889998389     -120.650789
9.519                0.889763647     -120.896384
9.52                 0.889529065     -121.142569
9.521                0.889294651     -121.389343
9.522                0.889060415     -121.636706
9.523                0.888826366     -121.884658
9.524                0.888592512     -122.133198
9.525                0.888358864     -122.382327
9.526                 0.88812543     -122.632045
9.527                 0.88789222     -122.882351
9.528                0.887659244     -123.133245
9.529                 0.88742651     -123.384727
9.53                 0.887194029     -123.636796
9.531                 0.88696181     -123.889453
9.532                0.886729863     -124.142697
9.533                0.886498198     -124.396527
9.534                0.886266824     -124.650944
9.535                0.886035752     -124.905946
9.536                0.885804991     -125.161534
9.537                0.885574552     -125.417708
9.538                0.885344444     -125.674465
9.539                0.885114678     -125.931808
9.54                 0.884885265     -126.189733
9.541                0.884656214     -126.448242
9.542                0.884427535     -126.707334
9.543                0.884199241     -126.967007
9.544                0.883971339     -127.227262
9.545                0.883743843     -127.488097
9.546                0.883516761     -127.749513
9.547                0.883290105     -128.011508
9.548                0.883063885     -128.274082
9.549                0.882838113     -128.537233
9.55                 0.882612799     -128.800962
9.551                0.882387954     -129.065267
9.552                0.882163589     -129.330148
9.553                0.881939716     -129.595603
9.554                0.881716344     -129.861632
9.555                0.881493486     -130.128234
9.556                0.881271152     -130.395408
9.557                0.881049355     -130.663153
9.558                0.880828104     -130.931468
9.559                0.880607412     -131.200352
9.56                  0.88038729     -131.469804
9.561                0.880167749     -131.739822
9.562                0.879948801     -132.010406
9.563                0.879730458     -132.281555
9.564                0.879512731     -132.553267
9.565                0.879295631     -132.825541
9.566                0.879079171     -133.098376
9.567                0.878863362      -133.37177
9.568                0.878648216     -133.645723
9.569                0.878433745     -133.920233
9.57                 0.878219961     -134.195299
9.571                0.878006875     -134.470919
9.572                0.877794499     -134.747091
9.573                0.877582846     -135.023815
9.574                0.877371928     -135.301089
9.575                0.877161756     -135.578911
9.576                0.876952342      -135.85728
9.577                  0.8767437     -136.136195
9.578                 0.87653584     -136.415652
9.579                0.876328776     -136.695652
9.58                 0.876122518     -136.976192
9.581                 0.87591708      -137.25727
9.582                0.875712474     -137.538886
9.583                0.875508712     -137.821036
9.584                0.875305807     -138.103719
9.585                 0.87510377     -138.386934
9.586                0.874902614     -138.670679
9.587                0.874702351      -138.95495
9.588                0.874502994     -139.239748
9.589                0.874304556     -139.525069
9.59                 0.874107048     -139.810912
9.591                0.873910483     -140.097274
9.592                0.873714874     -140.384154
9.593                0.873520232     -140.671549
9.594                0.873326571     -140.959458
9.595                0.873133903     -141.247877
9.596                 0.87294224     -141.536805
9.597                0.872751595      -141.82624
9.598                0.872561981      -142.11618
9.599                0.872373409     -142.406621
9.6                  0.872185892     -142.697562
9.601                0.871999443        -142.989