! TOUCHSTONE file generated by CST DESIGN STUDIO
! Date and time: Wed Feb  5 13:45:06 2025
! Project name: C:\Work\MatlabApps\UnitCellOptimizationMatlab\CST\unitcell.cst
! Tree item: Tasks\Sweep1\SPara1\S-Parameters
! Header version: 2024
! Port assignment regex: !\s*Touchstone port\s*([0-9]+)\s*=\s*(CST MWS port|CST DES external port|CST DES block port)\s*(.+)\s* \(\"(.*)\"\)(\s*mode\s*([0-9]+))?.*
! Touchstone port assignment:
! Touchstone port 1 = CST DES external port 1 ("")
# GHz S MA R 50
9                    0.949162581     -81.2557423
9.001                0.949025982     -81.3894544
9.002                 0.94888897     -81.5235215
9.003                0.948751543     -81.6579446
9.004                0.948613703     -81.7927249
9.005                0.948475446     -81.9278634
9.006                0.948336773     -82.0633613
9.007                0.948197684     -82.1992195
9.008                0.948058176     -82.3354393
9.009                 0.94791825     -82.4720217
9.01                 0.947777905     -82.6089679
9.011                 0.94763714     -82.7462788
9.012                0.947495955     -82.8839557
9.013                0.947354349     -83.0219997
9.014                 0.94721232     -83.1604118
9.015                0.947069869     -83.2991931
9.016                0.946926996     -83.4383449
9.017                0.946783698     -83.5778681
9.018                0.946639976     -83.7177639
9.019                0.946495828     -83.8580335
9.02                 0.946351255     -83.9986778
9.021                0.946206256     -84.1396982
9.022                 0.94606083     -84.2810957
9.023                0.945914977     -84.4228713
9.024                0.945768695     -84.5650264
9.025                0.945621985     -84.7075619
9.026                0.945474846      -84.850479
9.027                0.945327277     -84.9937788
9.028                0.945179278     -85.1374625
9.029                0.945030849     -85.2815312
9.03                 0.944881988     -85.4259861
9.031                0.944732695     -85.5708282
9.032                0.944582971     -85.7160587
9.033                0.944432814     -85.8616789
9.034                0.944282223     -86.0076897
9.035                0.944131199     -86.1540923
9.036                0.943979741      -86.300888
9.037                0.943827849     -86.4480778
9.038                0.943675522     -86.5956629
9.039                 0.94352276     -86.7436444
9.04                 0.943369562     -86.8920235
9.041                0.943215929     -87.0408013
9.042                0.943061859     -87.1899791
9.043                0.942907353     -87.3395579
9.044                0.942752409     -87.4895388
9.045                0.942597029     -87.6399231
9.046                0.942441211      -87.790712
9.047                0.942284955     -87.9419065
9.048                0.942128261     -88.0935078
9.049                0.941971129     -88.2455171
9.05                 0.941813559     -88.3979355
9.051                0.941655549     -88.5507643
9.052                0.941497101     -88.7040045
9.053                0.941338214     -88.8576573
9.054                0.941178887      -89.011724
9.055                0.941019122     -89.1662056
9.056                0.940858916     -89.3211033
9.057                0.940698271     -89.4764182
9.058                0.940537186     -89.6321517
9.059                0.940375662     -89.7883047
9.06                 0.940213698     -89.9448785
9.061                0.940051293     -90.1018743
9.062                0.939888449     -90.2592931
9.063                0.939725165     -90.4171363
9.064                0.939561441     -90.5754048
9.065                0.939397277        -90.7341
9.066                0.939232673      -90.893223
9.067                 0.93906763     -91.0527749
9.068                0.938902147     -91.2127569
9.069                0.938736224     -91.3731702
9.07                 0.938569863     -91.5340159
9.071                0.938403061     -91.6952952
9.072                0.938235821     -91.8570093
9.073                0.938068142     -92.0191594
9.074                0.937900025     -92.1817465
9.075                0.937731469     -92.3447719
9.076                0.937562475     -92.5082368
9.077                0.937393043     -92.6721422
9.078                0.937223173     -92.8364895
9.079                0.937052867     -93.0012796
9.08                 0.936882124     -93.1665138
9.081                0.936710944     -93.3321933
9.082                0.936539328     -93.4983192
9.083                0.936367277     -93.6648926
9.084                 0.93619479     -93.8319148
9.085                0.936021869     -93.9993868
9.086                0.935848514     -94.1673099
9.087                0.935674725     -94.3356852
9.088                0.935500503     -94.5045138
9.089                0.935325849      -94.673797
9.09                 0.935150763     -94.8435358
9.091                0.934975246     -95.0137314
9.092                0.934799298     -95.1843849
9.093                 0.93462292     -95.3554976
9.094                0.934446113     -95.5270704
9.095                0.934268877     -95.6991047
9.096                0.934091214     -95.8716015
9.097                0.933913124      -96.044562
9.098                0.933734609     -96.2179873
9.099                0.933555668     -96.3918785
9.1                  0.933376302     -96.5662368
9.101                0.933196514     -96.7410633
9.102                0.933016303     -96.9163591
9.103                 0.93283567     -97.0921254
9.104                0.932654618     -97.2683633
9.105                0.932473146     -97.4450739
9.106                0.932291255     -97.6222583
9.107                0.932108948     -97.7999177
9.108                0.931926224     -97.9780532
9.109                0.931743085     -98.1566658
9.11                 0.931559533     -98.3357566
9.111                0.931375568     -98.5153269
9.112                0.931191193     -98.6953776
9.113                0.931006407       -98.87591
9.114                0.930821213      -99.056925
9.115                0.930635611     -99.2384238
9.116                0.930449604     -99.4204074
9.117                0.930263193      -99.602877
9.118                0.930076378     -99.7858336
9.119                0.929889162     -99.9692783
9.12                 0.929701547     -100.153212
9.121                0.929513533     -100.337636
9.122                0.929325123     -100.522552
9.123                0.929136317      -100.70796
9.124                0.928947118     -100.893861
9.125                0.928757528     -101.080257
9.126                0.928567548     -101.267148
9.127                 0.92837718     -101.454536
9.128                0.928186426     -101.642421
9.129                0.927995288     -101.830805
9.13                 0.927803767     -102.019689
9.131                0.927611867     -102.209074
9.132                0.927419587      -102.39896
9.133                0.927226932     -102.589349
9.134                0.927033902     -102.780241
9.135                  0.9268405     -102.971639
9.136                0.926646728     -103.163542
9.137                0.926452588     -103.355952
9.138                0.926258083     -103.548869
9.139                0.926063215     -103.742296
9.14                 0.925867986     -103.936232
9.141                0.925672398     -104.130678
9.142                0.925476455     -104.325637
9.143                0.925280158     -104.521108
9.144                0.925083509     -104.717092
9.145                0.924886513     -104.913591
9.146                 0.92468917     -105.110605
9.147                0.924491484     -105.308135
9.148                0.924293457     -105.506183
9.149                0.924095093     -105.704749
9.15                 0.923896394     -105.903834
9.151                0.923697362     -106.103439
9.152                0.923498001     -106.303565
9.153                0.923298313     -106.504212
9.154                0.923098303     -106.705382
9.155                0.922897971     -106.907076
9.156                0.922697322     -107.109294
9.157                0.922496359     -107.312037
9.158                0.922295085     -107.515306
9.159                0.922093503     -107.719102
9.16                 0.921891617     -107.923426
9.161                0.921689429     -108.128278
9.162                0.921486943      -108.33366
9.163                0.921284163     -108.539572
9.164                0.921081091     -108.746015
9.165                0.920877732     -108.952989
9.166                0.920674089     -109.160496
9.167                0.920470166     -109.368536
9.168                0.920265966      -109.57711
9.169                0.920061493     -109.786219
9.17                 0.919856751     -109.995863
9.171                0.919651743     -110.206044
9.172                0.919446474     -110.416761
9.173                0.919240947     -110.628016
9.174                0.919035167      -110.83981
9.175                0.918829138     -111.052142
9.176                0.918622863     -111.265014
9.177                0.918416346     -111.478427
9.178                0.918209593      -111.69238
9.179                0.918002607     -111.906875
9.18                 0.917795392     -112.121912
9.181                0.917587953     -112.337492
9.182                0.917380295     -112.553615
9.183                0.917172421     -112.770283
9.184                0.916964337     -112.987495
9.185                0.916756047     -113.205252
9.186                0.916547555     -113.423555
9.187                0.916338867     -113.642404
9.188                0.916129987       -113.8618
9.189                0.915920919     -114.081744
9.19                  0.91571167     -114.302235
9.191                0.915502243     -114.523274
9.192                0.915292644     -114.744862
9.193                0.915082878        -114.967
9.194                 0.91487295     -115.189687
9.195                0.914662865     -115.412924
9.196                0.914452628     -115.636712
9.197                0.914242245      -115.86105
9.198                0.914031721      -116.08594
9.199                0.913821061     -116.311382
9.2                  0.913610272     -116.537376
9.201                0.913399357     -116.763922
9.202                0.913188324      -116.99102
9.203                0.912977178     -117.218672
9.204                0.912765923     -117.446877
9.205                0.912554567     -117.675636
9.206                0.912343115     -117.904949
9.207                0.912131573     -118.134816
9.208                0.911919947     -118.365237
9.209                0.911708243     -118.596212
9.21                 0.911496467     -118.827743
9.211                0.911284624     -119.059828
9.212                0.911072722     -119.292469
9.213                0.910860767     -119.525665
9.214                0.910648765     -119.759416
9.215                0.910436721     -119.993723
9.216                0.910224644     -120.228585
9.217                0.910012539     -120.464003
9.218                0.909800412     -120.699977
9.219                0.909588271     -120.936507
9.22                 0.909376122     -121.173592
9.221                0.909163972     -121.411233
9.222                0.908951827      -121.64943
9.223                0.908739695     -121.888183
9.224                0.908527583     -122.127492
9.225                0.908315497     -122.367356
9.226                0.908103444     -122.607776
9.227                0.907891433     -122.848752
9.228                0.907679468     -123.090282
9.229                0.907467559     -123.332368
9.23                 0.907255713     -123.575009
9.231                0.907043936     -123.818205
9.232                0.906832236     -124.061955
9.233                 0.90662062      -124.30626
9.234                0.906409097     -124.551119
9.235                0.906197674     -124.796532
9.236                0.905986357     -125.042498
9.237                0.905775156     -125.289018
9.238                0.905564078      -125.53609
9.239                0.905353131     -125.783715
9.24                 0.905142322     -126.031892
9.241                0.904931659     -126.280621
9.242                0.904721151     -126.529901
9.243                0.904510806     -126.779733
9.244                0.904300631     -127.030114
9.245                0.904090635     -127.281046
9.246                0.903880827     -127.532526
9.247                0.903671213     -127.784556
9.248                0.903461804     -128.037134
9.249                0.903252607      -128.29026
9.25                  0.90304363     -128.543933
9.251                0.902834882     -128.798152
9.252                0.902626372     -129.052917
9.253                0.902418109     -129.308227
9.254                  0.9022101     -129.564082
9.255                0.902002355      -129.82048
9.256                0.901794883     -130.077421
9.257                0.901587692     -130.334904
9.258                0.901380791     -130.592929
9.259                0.901174189     -130.851494
9.26                 0.900967895     -131.110599
9.261                0.900761919     -131.370242
9.262                0.900556268     -131.630424
9.263                0.900350954     -131.891142
9.264                0.900145983     -132.152396
9.265                0.899941367     -132.414185
9.266                0.899737113     -132.676508
9.267                0.899533232     -132.939364
9.268                0.899329733     -133.202752
9.269                0.899126625      -133.46667
9.27                 0.898923917     -133.731118
9.271                 0.89872162     -133.996094
9.272                0.898519742     -134.261598
9.273                0.898318293     -134.527628
9.274                0.898117284     -134.794183
9.275                0.897916723     -135.061261
9.276                 0.89771662     -135.328862
9.277                0.897516985     -135.596983
9.278                0.897317828     -135.865625
9.279                0.897119159     -136.134784
9.28                 0.896920987     -136.404461
9.281                0.896723323     -136.674653
9.282                0.896526176     -136.945359
9.283                0.896329556     -137.216577
9.284                0.896133474     -137.488307
9.285                0.895937939     -137.760546
9.286                0.895742961     -138.033293
9.287                 0.89554855     -138.306546
9.288                0.895354718     -138.580304
9.289                0.895161473     -138.854565
9.29                 0.894968826     -139.129327
9.291                0.894776787     -139.404589
9.292                0.894585367     -139.680349
9.293                0.894394575     -139.956605
9.294                0.894204422     -140.233355
9.295                0.894014918     -140.510598
9.296                0.893826074     -140.788331
9.297                  0.8936379     -141.066554
9.298                0.893450406     -141.345263
9.299                0.893263602     -141.624456
9.3                    0.8930775     -141.904133
9.301                0.892892109     -142.184291
9.302                0.892707439     -142.464927
9.303                0.892523502      -142.74604
9.304                0.892340308     -143.027628
9.305                0.892157867     -143.309689
9.306                 0.89197619     -143.592219
9.307                0.891795287     -143.875218
9.308                0.891615168     -144.158683
9.309                0.891435844     -144.442612
9.31                 0.891257326     -144.727002
9.311                0.891079625     -145.011851
9.312                0.890902749     -145.297157
9.313                0.890726711     -145.582918
9.314                0.890551521      -145.86913
9.315                0.890377188     -146.155792
9.316                0.890203724     -146.442901
9.317                0.890031139     -146.730455
9.318                0.889859444      -147.01845
9.319                0.889688649     -147.306885
9.32                 0.889518764     -147.595758
9.321                  0.8893498     -147.885064
9.322                0.889181767     -148.174802
9.323                0.889014676     -148.464969
9.324                0.888848538     -148.755563
9.325                0.888683362      -149.04658
9.326                0.888519158     -149.338018
9.327                0.888355939     -149.629873
9.328                0.888193712     -149.922144
9.329                 0.88803249     -150.214828
9.33                 0.887872282      -150.50792
9.331                0.887713099      -150.80142
9.332                 0.88755495     -151.095322
9.333                0.887397846     -151.389626
9.334                0.887241797     -151.684327
9.335                0.887086814     -151.979422
9.336                0.886932905     -152.274909
9.337                0.886780083     -152.570784
9.338                0.886628355     -152.867045
9.339                0.886477734     -153.163687
9.34                 0.886328227     -153.460709
9.341                0.886179846     -153.758106
9.342                  0.8860326     -154.055876
9.343                  0.8858865     -154.354015
9.344                0.885741554      -154.65252
9.345                0.885597772     -154.951388
9.346                0.885455165     -155.250615
9.347                0.885313742     -155.550197
9.348                0.885173512     -155.850133
9.349                0.885034486     -156.150417
9.35                 0.884896672     -156.451047
9.351                 0.88476008     -156.752018
9.352                0.884624719     -157.053329
9.353                0.884490598     -157.354974
9.354                0.884357728     -157.656951
9.355                0.884226117     -157.959256
9.356                0.884095773     -158.261885
9.357                0.883966707     -158.564834
9.358                0.883838927     -158.868101
9.359                0.883712442      -159.17168
9.36                 0.883587261     -159.475569
9.361                0.883463393     -159.779764
9.362                0.883340846     -160.084261
9.363                0.883219629     -160.389056
9.364                0.883099751     -160.694145
9.365                0.882981219     -160.999525
9.366                0.882864043     -161.305191
9.367                0.882748231      -161.61114
9.368                 0.88263379     -161.917367
9.369                 0.88252073      -162.22387
9.37                 0.882409057     -162.530643
9.371                0.882298781     -162.837683
9.372                0.882189908     -163.144987
9.373                0.882082447     -163.452548
9.374                0.881976406     -163.760365
9.375                0.881871791     -164.068432
9.376                0.881768611     -164.376746
9.377                0.881666873     -164.685302
9.378                0.881566584     -164.994097
9.379                0.881467751     -165.303125
9.38                 0.881370381     -165.612384
9.381                0.881274482     -165.921868
9.382                0.881180061     -166.231574
9.383                0.881087124     -166.541497
9.384                0.880995677     -166.851633
9.385                0.880905728     -167.161977
9.386                0.880817283     -167.472526
9.387                0.880730348     -167.783276
9.388                 0.88064493      -168.09422
9.389                0.880561034     -168.405357
9.39                 0.880478667      -168.71668
9.391                0.880397835     -169.028186
9.392                0.880318543      -169.33987
9.393                0.880240797     -169.651728
9.394                0.880164603     -169.963756
9.395                0.880089966     -170.275948
9.396                0.880016892     -170.588301
9.397                0.879945385      -170.90081
9.398                0.879875451      -171.21347
9.399                0.879807095     -171.526277
9.4                  0.879740322     -171.839227
9.401                0.879675136     -172.152315
9.402                0.879611541     -172.465536
9.403                0.879549544     -172.778886
9.404                0.879489146      -173.09236
9.405                0.879430354     -173.405953
9.406                0.879373171     -173.719662
9.407                0.879317601     -174.033482
9.408                0.879263648     -174.347407
9.409                0.879211315     -174.661433
9.41                 0.879160606     -174.975556
9.411                0.879111525     -175.289772
9.412                0.879064074     -175.604074
9.413                0.879018258     -175.918459
9.414                0.878974078     -176.232922
9.415                0.878931538     -176.547458
9.416                0.878890641     -176.862064
9.417                 0.87885139     -177.176733
9.418                0.878813786     -177.491461
9.419                0.878777832     -177.806244
9.42                  0.87874353     -178.121077
9.421                0.878710883     -178.435955
9.422                0.878679892     -178.750873
9.423                0.878650559     -179.065827
9.424                0.878622886     -179.380813
9.425                0.878596875     -179.695824
9.426                0.878572526      179.989143
9.427                0.878549841      179.674093
9.428                0.878528821      179.359031
9.429                0.878509467      179.043961
9.43                 0.878491779      178.728889
9.431                 0.87847576      178.413818
9.432                0.878461408      178.098755
9.433                0.878448724      177.783703
9.434                 0.87843771      177.468667
9.435                0.878428364      177.153652
9.436                0.878420687      176.838663
9.437                0.878414678      176.523704
9.438                0.878410338       176.20878
9.439                0.878407666      175.893896
9.44                 0.878406661      175.579057
9.441                0.878407322      175.264267
9.442                0.878409649      174.949531
9.443                0.878413641      174.634853
9.444                0.878419297      174.320239
9.445                0.878426614      174.005693
9.446                0.878435593      173.691219
9.447                 0.87844623      173.376823
9.448                0.878458526      173.062509
9.449                0.878472477      172.748281
9.45                 0.878488082      172.434145
9.451                0.878505338      172.120105
9.452                0.878524245      171.806166
9.453                0.878544798      171.492331
9.454                0.878566995      171.178607
9.455                0.878590835      170.864997
9.456                0.878616313      170.551506
9.457                0.878643428      170.238139
9.458                0.878672176        169.9249
9.459                0.878702554      169.611794
9.46                 0.878734559      169.298825
9.461                0.878768187      168.985998
9.462                0.878803434      168.673318
9.463                0.878840298      168.360788
9.464                0.878878774      168.048414
9.465                0.878918857      167.736199
9.466                0.878960545      167.424149
9.467                0.879003833      167.112268
9.468                0.879048717       166.80056
9.469                0.879095191       166.48903
9.47                 0.879143252      166.177682
9.471                0.879192895       165.86652
9.472                0.879244115      165.555549
9.473                0.879296907      165.244774
9.474                0.879351266      164.934198
9.475                0.879407187      164.623826
9.476                0.879464664      164.313662
9.477                0.879523693      164.003711
9.478                0.879584267      163.693976
9.479                0.879646381      163.384462
9.48                  0.87971003      163.075174
9.481                0.879775206      162.766115
9.482                0.879841906       162.45729
9.483                0.879910121      162.148702
9.484                0.879979847      161.840357
9.485                0.880051077      161.532257
9.486                0.880123804      161.224408
9.487                0.880198022      160.916813
9.488                0.880273725      160.609477
9.489                0.880350905      160.302403
9.49                 0.880429557      159.995595
9.491                0.880509672      159.689058
9.492                0.880591244      159.382795
9.493                0.880674266      159.076811
9.494                0.880758731      158.771109
9.495                0.880844632      158.465693
9.496                 0.88093196      158.160567
9.497                 0.88102071      157.855735
9.498                0.881110872      157.551201
9.499                 0.88120244      157.246969
9.5                  0.881295406      156.943042
9.501                0.881389761      156.639424
9.502                0.881485499      156.336119
9.503                0.881582611      156.033131
9.504                0.881681089      155.730462
9.505                0.881780925      155.428118
9.506                 0.88188211      155.126102
9.507                0.881984638      154.824416
9.508                0.882088498      154.523065
9.509                0.882193683      154.222053
9.51                 0.882300184      153.921382
9.511                0.882407993      153.621057
9.512                0.882517102      153.321081
9.513                  0.8826275      153.021456
9.514                 0.88273918      152.722188
9.515                0.882852133      152.423278
9.516                 0.88296635      152.124731
9.517                0.883081822       151.82655
9.518                0.883198539      151.528737
9.519                0.883316494      151.231297
9.52                 0.883435677      150.934233
9.521                0.883556078      150.637547
9.522                0.883677689      150.341243
9.523                0.883800499      150.045325
9.524                0.883924501      149.749794
9.525                0.884049684      149.454655
9.526                0.884176039       149.15991
9.527                0.884303557      148.865563
9.528                0.884432228      148.571616
9.529                0.884562043      148.278073
9.53                 0.884692991      147.984936
9.531                0.884825064      147.692209
9.532                0.884958252      147.399893
9.533                0.885092545      147.107993
9.534                0.885227933      146.816511
9.535                0.885364407      146.525449
9.536                0.885501956      146.234811
9.537                0.885640572        145.9446
9.538                0.885780243      145.654817
9.539                0.885920961      145.365466
9.54                 0.886062715      145.076549
9.541                0.886205496      144.788069
9.542                0.886349293      144.500029
9.543                0.886494097       144.21243
9.544                0.886639897      143.925277
9.545                0.886786684       143.63857
9.546                0.886934447      143.352313
9.547                0.887083177      143.066508
9.548                0.887232863      142.781157
9.549                0.887383496      142.496264
9.55                 0.887535065      142.211829
9.551                 0.88768756      141.927856
9.552                0.887840972      141.644347
9.553                0.887995289      141.361303
9.554                0.888150503      141.078728
9.555                0.888306602      140.796624
9.556                0.888463577      140.514992
9.557                0.888621418      140.233835
9.558                0.888780115      139.953154
9.559                0.888939657      139.672953
9.56                 0.889100034      139.393232
9.561                0.889261236      139.113995
9.562                0.889423254      138.835243
9.563                0.889586077      138.556977
9.564                0.889749695      138.279201
9.565                0.889914097      138.001915
9.566                0.890079275      137.725122
9.567                0.890245217      137.448823
9.568                0.890411914       137.17302
9.569                0.890579356      136.897716
9.57                 0.890747533      136.622911
9.571                0.890916434      136.348608
9.572                 0.89108605      136.074808
9.573                 0.89125637      135.801513
9.574                0.891427386      135.528725
9.575                0.891599086      135.256444
9.576                0.891771462      134.984673
9.577                0.891944502      134.713414
9.578                0.892118198      134.442667
9.579                0.892292539      134.172434
9.58                 0.892467516      133.902717
9.581                0.892643118      133.633518
9.582                0.892819337      133.364836
9.583                0.892996162      133.096675
9.584                0.893173583      132.829034
9.585                0.893351591      132.561917
9.586                0.893530177      132.295323
9.587                 0.89370933      132.029254
9.588                0.893889041      131.763711
9.589                0.894069301      131.498696
9.59                 0.894250099       131.23421
9.591                0.894431427      130.970253
9.592                0.894613276      130.706828
9.593                0.894795634      130.443934
9.594                0.894978494      130.181574
9.595                0.895161846      129.919748
9.596                0.895345681      129.658457
9.597                0.895529988      129.397702
9.598                 0.89571476      129.137484
9.599                0.895899987      128.877804
9.6                   0.89608566      128.618664
9.601                0.896271769      128.360063