! TOUCHSTONE file generated by CST DESIGN STUDIO
! Date and time: Wed Feb  5 13:45:14 2025
! Project name: C:\Work\MatlabApps\UnitCellOptimizationMatlab\CST\unitcell.cst
! Tree item: Tasks\Sweep1\SPara1\S-Parameters
! Header version: 2024
! Port assignment regex: !\s*Touchstone port\s*([0-9]+)\s*=\s*(CST MWS port|CST DES external port|CST DES block port)\s*(.+)\s* \(\"(.*)\"\)(\s*mode\s*([0-9]+))?.*
! Touchstone port assignment:
! Touchstone port 1 = CST DES external port 1 ("")
# GHz S MA R 50
9                    0.960052758     -61.0194843
9.001                0.959966373     -61.1041809
9.002                0.959879715     -61.1890768
9.003                 0.95979278     -61.2741726
9.004                 0.95970557     -61.3594691
9.005                0.959618082     -61.4449668
9.006                0.959530316     -61.5306663
9.007                0.959442271     -61.6165684
9.008                0.959353946     -61.7026737
9.009                 0.95926534     -61.7889828
9.01                 0.959176453     -61.8754963
9.011                0.959087282      -61.962215
9.012                0.958997828     -62.0491395
9.013                0.958908089     -62.1362704
9.014                0.958818065     -62.2236085
9.015                0.958727754     -62.3111543
9.016                0.958637156     -62.3989085
9.017                0.958546269     -62.4868719
9.018                0.958455093      -62.575045
9.019                0.958363627     -62.6634286
9.02                 0.958271869     -62.7520233
9.021                0.958179819     -62.8408299
9.022                0.958087476     -62.9298489
9.023                0.957994839      -63.019081
9.024                0.957901907     -63.1085271
9.025                0.957808679     -63.1981876
9.026                0.957715154     -63.2880634
9.027                0.957621331     -63.3781551
9.028                0.957527209     -63.4684635
9.029                0.957432787     -63.5589891
9.03                 0.957338064     -63.6497328
9.031                0.957243039     -63.7406952
9.032                0.957147712      -63.831877
9.033                 0.95705208     -63.9232789
9.034                0.956956144     -64.0149016
9.035                0.956859903     -64.1067459
9.036                0.956763354     -64.1988125
9.037                0.956666498      -64.291102
9.038                0.956569333     -64.3836153
9.039                0.956471858     -64.4763529
9.04                 0.956374073     -64.5693157
9.041                0.956275976     -64.6625044
9.042                0.956177566     -64.7559196
9.043                0.956078843     -64.8495622
9.044                0.955979805     -64.9434328
9.045                0.955880451     -65.0375323
9.046                0.955780781     -65.1318613
9.047                0.955680793     -65.2264205
9.048                0.955580486     -65.3212108
9.049                0.955479859     -65.4162328
9.05                 0.955378912     -65.5114874
9.051                0.955277644     -65.6069752
9.052                0.955176052     -65.7026971
9.053                0.955074137     -65.7986537
9.054                0.954971897     -65.8948459
9.055                0.954869332     -65.9912744
9.056                0.954766439     -66.0879399
9.057                0.954663219     -66.1848433
9.058                 0.95455967     -66.2819852
9.059                0.954455791     -66.3793666
9.06                 0.954351582     -66.4769881
9.061                 0.95424704     -66.5748505
9.062                0.954142166     -66.6729546
9.063                0.954036958     -66.7713012
9.064                0.953931415     -66.8698911
9.065                0.953825536      -66.968725
9.066                 0.95371932     -67.0678038
9.067                0.953612766     -67.1671283
9.068                0.953505873     -67.2666991
9.069                0.953398639     -67.3665173
9.07                 0.953291065     -67.4665834
9.071                0.953183149     -67.5668984
9.072                0.953074889      -67.667463
9.073                0.952966285     -67.7682781
9.074                0.952857336     -67.8693445
9.075                0.952748041     -67.9706629
9.076                0.952638398     -68.0722342
9.077                0.952528407     -68.1740593
9.078                0.952418067     -68.2761389
9.079                0.952307376     -68.3784738
9.08                 0.952196333      -68.481065
9.081                0.952084938     -68.5839131
9.082                 0.95197319     -68.6870192
9.083                0.951861087     -68.7903839
9.084                0.951748628     -68.8940081
9.085                0.951635813     -68.9978927
9.086                 0.95152264     -69.1020385
9.087                0.951409108     -69.2064464
9.088                0.951295216     -69.3111172
9.089                0.951180964     -69.4160517
9.09                 0.951066349     -69.5212509
9.091                0.950951372     -69.6267155
9.092                 0.95083603     -69.7324465
9.093                0.950720324     -69.8384446
9.094                0.950604251     -69.9447108
9.095                0.950487812     -70.0512459
9.096                0.950371004     -70.1580508
9.097                0.950253827     -70.2651264
9.098                 0.95013628     -70.3724736
9.099                0.950018361     -70.4800931
9.1                   0.94990007      -70.587986
9.101                0.949781406     -70.6961531
9.102                0.949662367     -70.8045952
9.103                0.949542953     -70.9133133
9.104                0.949423162     -71.0223083
9.105                0.949302994      -71.131581
9.106                0.949182447     -71.2411323
9.107                 0.94906152     -71.3509633
9.108                0.948940213     -71.4610746
9.109                0.948818524     -71.5714674
9.11                 0.948696452     -71.6821424
9.111                0.948573997     -71.7931006
9.112                0.948451157     -71.9043429
9.113                 0.94832793     -72.0158702
9.114                0.948204318     -72.1276835
9.115                0.948080317     -72.2397836
9.116                0.947955927     -72.3521715
9.117                0.947831147     -72.4648481
9.118                0.947705976     -72.5778144
9.119                0.947580413     -72.6910712
9.12                 0.947454458     -72.8046195
9.121                0.947328108     -72.9184603
9.122                0.947201363     -73.0325945
9.123                0.947074222     -73.1470231
9.124                0.946946684     -73.2617469
9.125                0.946818747     -73.3767669
9.126                0.946690412     -73.4920842
9.127                0.946561676     -73.6076996
9.128                 0.94643254     -73.7236141
9.129                0.946303001     -73.8398287
9.13                 0.946173059     -73.9563443
9.131                0.946042713     -74.0731619
9.132                0.945911961     -74.1902824
9.133                0.945780804     -74.3077069
9.134                0.945649239     -74.4254363
9.135                0.945517266     -74.5434716
9.136                0.945384884     -74.6618138
9.137                0.945252092     -74.7804638
9.138                0.945118889     -74.8994227
9.139                0.944985274     -75.0186914
9.14                 0.944851246     -75.1382709
9.141                0.944716804     -75.2581623
9.142                0.944581947     -75.3783664
9.143                0.944446674     -75.4988844
9.144                0.944310984     -75.6197171
9.145                0.944174876     -75.7408657
9.146                 0.94403835     -75.8623311
9.147                0.943901404     -75.9841143
9.148                0.943764037     -76.1062164
9.149                0.943626248     -76.2286383
9.15                 0.943488037     -76.3513812
9.151                0.943349402     -76.4744459
9.152                0.943210343     -76.5978335
9.153                0.943070859     -76.7215451
9.154                0.942930949     -76.8455816
9.155                0.942790611     -76.9699442
9.156                0.942649845     -77.0946338
9.157                 0.94250865     -77.2196515
9.158                0.942367026     -77.3449983
9.159                0.942224971     -77.4706752
9.16                 0.942082484     -77.5966833
9.161                0.941939564     -77.7230237
9.162                0.941796211     -77.8496974
9.163                0.941652424     -77.9767055
9.164                0.941508202     -78.1040489
9.165                0.941363544     -78.2317288
9.166                0.941218449     -78.3597462
9.167                0.941072917     -78.4881022
9.168                0.940926946     -78.6167978
9.169                0.940780535     -78.7458341
9.17                 0.940633685     -78.8752122
9.171                0.940486393     -79.0049332
9.172                 0.94033866     -79.1349981
9.173                0.940190485     -79.2654079
9.174                0.940041865     -79.3961639
9.175                0.939892802      -79.527267
9.176                0.939743294     -79.6587183
9.177                 0.93959334      -79.790519
9.178                 0.93944294     -79.9226701
9.179                0.939292093     -80.0551727
9.18                 0.939140797     -80.1880279
9.181                0.938989053     -80.3212368
9.182                 0.93883686     -80.4548005
9.183                0.938684216       -80.58872
9.184                0.938531122     -80.7229966
9.185                0.938377576     -80.8576313
9.186                0.938223577     -80.9926251
9.187                0.938069126     -81.1279793
9.188                0.937914221     -81.2636949
9.189                0.937758862      -81.399773
9.19                 0.937603049     -81.5362148
9.191                0.937446779     -81.6730213
9.192                0.937290053     -81.8101938
9.193                0.937132871     -81.9477332
9.194                0.936975231     -82.0856408
9.195                0.936817133     -82.2239176
9.196                0.936658577     -82.3625648
9.197                0.936499561     -82.5015835
9.198                0.936340085     -82.6409749
9.199                 0.93618015     -82.7807401
9.2                  0.936019753     -82.9208801
9.201                0.935858895     -83.0613962
9.202                0.935697575     -83.2022896
9.203                0.935535793     -83.3435612
9.204                0.935373547     -83.4852123
9.205                0.935210838     -83.6272441
9.206                0.935047666     -83.7696576
9.207                0.934884029      -83.912454
9.208                0.934719927     -84.0556345
9.209                 0.93455536     -84.1992002
9.21                 0.934390328     -84.3431522
9.211                0.934224829     -84.4874918
9.212                0.934058864     -84.6322201
9.213                0.933892432     -84.7773382
9.214                0.933725533     -84.9228473
9.215                0.933558166     -85.0687486
9.216                0.933390332     -85.2150432
9.217                 0.93322203     -85.3617323
9.218                0.933053259      -85.508817
9.219                0.932884019     -85.6562986
9.22                  0.93271431     -85.8041782
9.221                0.932544132     -85.9524569
9.222                0.932373485     -86.1011359
9.223                0.932202368     -86.2502165
9.224                0.932030781     -86.3996997
9.225                0.931858724     -86.5495868
9.226                0.931686196     -86.6998789
9.227                0.931513198     -86.8505772
9.228                 0.93133973     -87.0016829
9.229                0.931165791     -87.1531972
9.23                 0.930991381     -87.3051212
9.231                0.930816501     -87.4574561
9.232                0.930641149     -87.6102032
9.233                0.930465326     -87.7633635
9.234                0.930289033     -87.9169383
9.235                0.930112269     -88.0709288
9.236                0.929935033     -88.2253361
9.237                0.929757327     -88.3801614
9.238                 0.92957915      -88.535406
9.239                0.929400502     -88.6910709
9.24                 0.929221384     -88.8471575
9.241                0.929041794     -89.0036668
9.242                0.928861735     -89.1606001
9.243                0.928681205     -89.3179586
9.244                0.928500205     -89.4757434
9.245                0.928318736     -89.6339558
9.246                0.928136797     -89.7925969
9.247                0.927954388     -89.9516679
9.248                 0.92777151     -90.1111701
9.249                0.927588164     -90.2711045
9.25                 0.927404349     -90.4314724
9.251                0.927220066     -90.5922751
9.252                0.927035315     -90.7535136
9.253                0.926850097     -90.9151892
9.254                0.926664412      -91.077303
9.255                0.926478261     -91.2398563
9.256                0.926291644     -91.4028502
9.257                0.926104561      -91.566286
9.258                0.925917013     -91.7301648
9.259                   0.925729     -91.8944878
9.26                 0.925540524     -92.0592562
9.261                0.925351585     -92.2244712
9.262                0.925162183      -92.390134
9.263                0.924972319     -92.5562458
9.264                0.924781994     -92.7228077
9.265                0.924591208      -92.889821
9.266                0.924399962     -93.0572867
9.267                0.924208258     -93.2252062
9.268                0.924016095     -93.3935806
9.269                0.923823475     -93.5624111
9.27                 0.923630398     -93.7316988
9.271                0.923436866      -93.901445
9.272                0.923242879     -94.0716507
9.273                0.923048438     -94.2423173
9.274                0.922853544     -94.4134458
9.275                0.922658199     -94.5850375
9.276                0.922462403     -94.7570935
9.277                0.922266157      -94.929615
9.278                0.922069463     -95.1026031
9.279                0.921872321      -95.276059
9.28                 0.921674733      -95.449984
9.281                  0.9214767     -95.6243791
9.282                0.921278224     -95.7992455
9.283                0.921079305     -95.9745844
9.284                0.920879945     -96.1503969
9.285                0.920680145     -96.3266842
9.286                0.920479906     -96.5034475
9.287                0.920279231     -96.6806879
9.288                 0.92007812     -96.8584064
9.289                0.919876575     -97.0366044
9.29                 0.919674598     -97.2152829
9.291                 0.91947219     -97.3944431
9.292                0.919269352     -97.5740861
9.293                0.919066087      -97.754213
9.294                0.918862396      -97.934825
9.295                 0.91865828     -98.1159232
9.296                0.918453742     -98.2975088
9.297                0.918248783     -98.4795827
9.298                0.918043406     -98.6621463
9.299                0.917837611     -98.8452005
9.3                  0.917631401     -99.0287465
9.301                0.917424778     -99.2127855
9.302                0.917217744     -99.3973184
9.303                0.917010301     -99.5823464
9.304                0.916802451     -99.7678706
9.305                0.916594196     -99.9538922
9.306                0.916385539     -100.140412
9.307                 0.91617648     -100.327431
9.308                0.915967024     -100.514951
9.309                0.915757172     -100.702973
9.31                 0.915546926     -100.891497
9.311                0.915336289     -101.080525
9.312                0.915125263     -101.270058
9.313                0.914913851     -101.460096
9.314                0.914702055     -101.650642
9.315                0.914489878     -101.841695
9.316                0.914277322     -102.033258
9.317                0.914064391      -102.22533
9.318                0.913851086     -102.417914
9.319                0.913637411      -102.61101
9.32                 0.913423368     -102.804618
9.321                0.913208961     -102.998741
9.322                0.912994191     -103.193379
9.323                0.912779063     -103.388534
9.324                0.912563579     -103.584205
9.325                0.912347741     -103.780394
9.326                0.912131555     -103.977103
9.327                0.911915021     -104.174331
9.328                0.911698144     -104.372081
9.329                0.911480927     -104.570352
9.33                 0.911263373     -104.769146
9.331                0.911045486     -104.968465
9.332                0.910827268     -105.168308
9.333                0.910608724     -105.368677
9.334                0.910389857     -105.569572
9.335                 0.91017067     -105.770995
9.336                0.909951167     -105.972947
9.337                0.909731352     -106.175428
9.338                0.909511229     -106.378439
9.339                0.909290801     -106.581982
9.34                 0.909070072     -106.786056
9.341                0.908849046     -106.990664
9.342                0.908627727     -107.195805
9.343                0.908406118     -107.401481
9.344                0.908184225     -107.607692
9.345                0.907962052      -107.81444
9.346                0.907739601     -108.021724
9.347                0.907516878     -108.229547
9.348                0.907293887     -108.437908
9.349                0.907070632     -108.646809
9.35                 0.906847118     -108.856251
9.351                0.906623349     -109.066233
9.352                 0.90639933     -109.276757
9.353                0.906175065     -109.487824
9.354                0.905950559     -109.699434
9.355                0.905725816     -109.911588
9.356                0.905500842     -110.124287
9.357                 0.90527564     -110.337532
9.358                0.905050217     -110.551323
9.359                0.904824577      -110.76566
9.36                 0.904598726     -110.980545
9.361                0.904372667     -111.195979
9.362                0.904146406     -111.411961
9.363                0.903919949     -111.628493
9.364                0.903693301     -111.845575
9.365                0.903466466     -112.063208
9.366                0.903239451     -112.281393
9.367                0.903012261     -112.500129
9.368                0.902784901     -112.719418
9.369                0.902557378      -112.93926
9.37                 0.902329696     -113.159656
9.371                0.902101861     -113.380605
9.372                0.901873879      -113.60211
9.373                0.901645756      -113.82417
9.374                0.901417498     -114.046786
9.375                0.901189111     -114.269958
9.376                  0.9009606     -114.493687
9.377                0.900731973     -114.717973
9.378                0.900503234     -114.942817
9.379                0.900274391     -115.168218
9.38                 0.900045449     -115.394179
9.381                0.899816416     -115.620698
9.382                0.899587296     -115.847776
9.383                0.899358098     -116.075414
9.384                0.899128826     -116.303612
9.385                0.898899489     -116.532371
9.386                0.898670093      -116.76169
9.387                0.898440644      -116.99157
9.388                0.898211149     -117.222011
9.389                0.897981615     -117.453014
9.39                  0.89775205     -117.684578
9.391                0.897522459     -117.916705
9.392                0.897292851     -118.149394
9.393                0.897063232     -118.382645
9.394                 0.89683361     -118.616459
9.395                0.896603992     -118.850836
9.396                0.896374384     -119.085775
9.397                0.896144796     -119.321278
9.398                0.895915233     -119.557344
9.399                0.895685705     -119.793974
9.4                  0.895456217     -120.031167
9.401                0.895226779     -120.268923
9.402                0.894997397     -120.507243
9.403                 0.89476808     -120.746126
9.404                0.894538835     -120.985573
9.405                0.894309671     -121.225583
9.406                0.894080595     -121.466157
9.407                0.893851616     -121.707295
9.408                0.893622742     -121.948995
9.409                 0.89339398     -122.191259
9.41                 0.893165339     -122.434086
9.411                0.892936828     -122.677477
9.412                0.892708455      -122.92143
9.413                0.892480229     -123.165945
9.414                0.892252157     -123.411024
9.415                0.892024249     -123.656664
9.416                0.891796513     -123.902867
9.417                0.891568958     -124.149631
9.418                0.891341593     -124.396957
9.419                0.891114426     -124.644844
9.42                 0.890887468     -124.893292
9.421                0.890660725       -125.1423
9.422                0.890434209     -125.391869
9.423                0.890207927     -125.641997
9.424                0.889981889     -125.892685
9.425                0.889756104     -126.143931
9.426                0.889530582     -126.395736
9.427                0.889305331     -126.648099
9.428                0.889080362     -126.901019
9.429                0.888855683     -127.154496
9.43                 0.888631305      -127.40853
9.431                0.888407237     -127.663119
9.432                0.888183488     -127.918263
9.433                0.887960068     -128.173962
9.434                0.887736988     -128.430215
9.435                0.887514256     -128.687021
9.436                0.887291883     -128.944379
9.437                0.887069879     -129.202289
9.438                0.886848254      -129.46075
9.439                0.886627017     -129.719761
9.44                 0.886406179     -129.979322
9.441                0.886185751     -130.239431
9.442                0.885965741     -130.500088
9.443                0.885746161     -130.761291
9.444                0.885527021     -131.023041
9.445                0.885308331     -131.285335
9.446                0.885090102     -131.548173
9.447                0.884872343     -131.811554
9.448                0.884655067     -132.075478
9.449                0.884438282     -132.339942
9.45                 0.884222001     -132.604946
9.451                0.884006232     -132.870488
9.452                0.883790988     -133.136568
9.453                0.883576279     -133.403185
9.454                0.883362116     -133.670337
9.455                0.883148509     -133.938023
9.456                0.882935469     -134.206241
9.457                0.882723008     -134.474991
9.458                0.882511136     -134.744272
9.459                0.882299864     -135.014081
9.46                 0.882089204     -135.284418
9.461                0.881879166     -135.555281
9.462                0.881669762     -135.826668
9.463                0.881461002     -136.098579
9.464                0.881252898     -136.371012
9.465                0.881045461     -136.643965
9.466                0.880838702     -136.917437
9.467                0.880632633     -137.191425
9.468                0.880427265      -137.46593
9.469                0.880222608     -137.740948
9.47                 0.880018676     -138.016479
9.471                0.879815478     -138.292521
9.472                0.879613027     -138.569071
9.473                0.879411333     -138.846129
9.474                0.879210408     -139.123692
9.475                0.879010265     -139.401759
9.476                0.878810913     -139.680327
9.477                0.878612365     -139.959395
9.478                0.878414632     -140.238962
9.479                0.878217726     -140.519024
9.48                 0.878021659     -140.799581
9.481                0.877826441      -141.08063
9.482                0.877632085     -141.362169
9.483                0.877438602     -141.644196
9.484                0.877246004     -141.926709
9.485                0.877054302     -142.209705
9.486                0.876863508     -142.493184
9.487                0.876673634     -142.777142
9.488                0.876484691     -143.061578
9.489                 0.87629669     -143.346489
9.49                 0.876109645     -143.631872
9.491                0.875923565     -143.917727
9.492                0.875738464     -144.204049
9.493                0.875554351     -144.490837
9.494                 0.87537124     -144.778089
9.495                0.875189142     -145.065802
9.496                0.875008067     -145.353974
9.497                0.874828029     -145.642601
9.498                0.874649038     -145.931683
9.499                0.874471106     -146.221215
9.5                  0.874294245     -146.511196
9.501                0.874118466     -146.801622
9.502                0.873943781     -147.092492
9.503                0.873770201     -147.383803
9.504                0.873597737     -147.675551
9.505                0.873426402     -147.967734
9.506                0.873256207      -148.26035
9.507                0.873087162     -148.553395
9.508                 0.87291928     -148.846867
9.509                0.872752572     -149.140763
9.51                 0.872587049      -149.43508
9.511                0.872422722     -149.729814
9.512                0.872259603     -150.024964
9.513                0.872097703     -150.320526
9.514                0.871937033     -150.616497
9.515                0.871777604     -150.912874
9.516                0.871619428     -151.209654
9.517                0.871462515     -151.506834
9.518                0.871306876      -151.80441
9.519                0.871152523      -152.10238
9.52                 0.870999466     -152.400741
9.521                0.870847717     -152.699488
9.522                0.870697285     -152.998619
9.523                0.870548183     -153.298131
9.524                0.870400419      -153.59802
9.525                0.870254006     -153.898283
9.526                0.870108954     -154.198917
9.527                0.869965273     -154.499917
9.528                0.869822974     -154.801282
9.529                0.869682067     -155.103006
9.53                 0.869542563     -155.405087
9.531                0.869404471     -155.707522
9.532                0.869267803     -156.010306
9.533                0.869132568     -156.313436
9.534                0.868998776     -156.616909
9.535                0.868866437      -156.92072
9.536                0.868735561     -157.224867
9.537                0.868606158     -157.529345
9.538                0.868478238      -157.83415
9.539                 0.86835181      -158.13928
9.54                 0.868226884      -158.44473
9.541                 0.86810347     -158.750497
9.542                0.867981577     -159.056576
9.543                0.867861213     -159.362964
9.544                 0.86774239     -159.669657
9.545                0.867625115     -159.976651
9.546                0.867509397     -160.283942
9.547                0.867395246     -160.591526
9.548                0.867282671     -160.899399
9.549                0.867171679     -161.207557
9.55                 0.867062281     -161.515997
9.551                0.866954484     -161.824714
9.552                0.866848297     -162.133703
9.553                0.866743728     -162.442962
9.554                0.866640785     -162.752485
9.555                0.866539478     -163.062269
9.556                0.866439812     -163.372309
9.557                0.866341798     -163.682602
9.558                0.866245441     -163.993143
9.559                0.866150751     -164.303927
9.56                 0.866057734     -164.614952
9.561                0.865966398     -164.926211
9.562                0.865876751     -165.237702
9.563                0.865788799     -165.549419
9.564                 0.86570255     -165.861359
9.565                 0.86561801     -166.173516
9.566                0.865535187     -166.485888
9.567                0.865454087     -166.798468
9.568                0.865374716     -167.111254
9.569                0.865297082     -167.424239
9.57                 0.865221191     -167.737421
9.571                0.865147048     -168.050794
9.572                 0.86507466     -168.364355
9.573                0.865004033     -168.678097
9.574                0.864935172     -168.992018
9.575                0.864868084     -169.306112
9.576                0.864802773     -169.620376
9.577                0.864739245     -169.934803
9.578                0.864677505      -170.24939
9.579                0.864617559     -170.564133
9.58                 0.864559412     -170.879026
9.581                0.864503067     -171.194064
9.582                0.864448531     -171.509245
9.583                0.864395807     -171.824562
9.584                  0.8643449      -172.14001
9.585                0.864295813     -172.455586
9.586                0.864248552     -172.771285
9.587                 0.86420312     -173.087102
9.588                0.864159521     -173.403032
9.589                0.864117759      -173.71907
9.59                 0.864077836     -174.035213
9.591                0.864039757     -174.351454
9.592                0.864003525     -174.667789
9.593                0.863969142     -174.984215
9.594                0.863936611     -175.300724
9.595                0.863905936     -175.617314
9.596                0.863877119     -175.933979
9.597                0.863850161     -176.250715
9.598                0.863825067     -176.567516
9.599                0.863801837     -176.884378
9.6                  0.863780473     -177.201296
9.601                0.863760978     -177.518266