! TOUCHSTONE file generated by CST DESIGN STUDIO
! Date and time: Tue Feb  4 13:23:59 2025
! Project name: C:\Work\MatlabApps\UnitCellOptimizationMatlab\CST\unitcell.cst
! Tree item: Tasks\Sweep1\SPara1\S-Parameters
! Header version: 2024
! Port assignment regex: !\s*Touchstone port\s*([0-9]+)\s*=\s*(CST MWS port|CST DES external port|CST DES block port)\s*(.+)\s* \(\"(.*)\"\)(\s*mode\s*([0-9]+))?.*
! Touchstone port assignment:
! Touchstone port 1 = CST DES external port 1 ("")
# GHz S MA R 50
9                    0.983655496     -71.0176106
9.001                0.983618251     -71.1218969
9.002                0.983580891     -71.2264359
9.003                0.983543417     -71.3312286
9.004                0.983505827     -71.4362755
9.005                0.983468122     -71.5415776
9.006                0.983430301     -71.6471355
9.007                0.983392364     -71.7529501
9.008                 0.98335431     -71.8590222
9.009                 0.98331614     -71.9653525
9.01                 0.983277853     -72.0719419
9.011                0.983239449      -72.178791
9.012                0.983200927     -72.2859008
9.013                0.983162288      -72.393272
9.014                 0.98312353     -72.5009054
9.015                0.983084654     -72.6088018
9.016                0.983045659      -72.716962
9.017                0.983006545     -72.8253868
9.018                0.982967312      -72.934077
9.019                0.982927959     -73.0430335
9.02                 0.982888486     -73.1522569
9.021                0.982848893     -73.2617483
9.022                 0.98280918     -73.3715083
9.023                0.982769346     -73.4815377
9.024                0.982729391     -73.5918375
9.025                0.982689314     -73.7024084
9.026                0.982649116     -73.8132512
9.027                0.982608796     -73.9243669
9.028                0.982568353     -74.0357561
9.029                0.982527789     -74.1474197
9.03                 0.982487101     -74.2593586
9.031                 0.98244629     -74.3715735
9.032                0.982405356     -74.4840655
9.033                0.982364299     -74.5968351
9.034                0.982323117     -74.7098834
9.035                0.982281811     -74.8232111
9.036                0.982240381     -74.9368192
9.037                0.982198826     -75.0507083
9.038                0.982157146     -75.1648795
9.039                0.982115341     -75.2793335
9.04                  0.98207341     -75.3940712
9.041                0.982031353     -75.5090935
9.042                 0.98198917     -75.6244012
9.043                 0.98194686     -75.7399951
9.044                0.981904424     -75.8558762
9.045                0.981861861     -75.9720452
9.046                 0.98181917     -76.0885031
9.047                0.981776352     -76.2052508
9.048                0.981733406     -76.3222891
9.049                0.981690333     -76.4396188
9.05                  0.98164713     -76.5572409
9.051                0.981603799     -76.6751561
9.052                 0.98156034     -76.7933655
9.053                0.981516751     -76.9118699
9.054                0.981473033     -77.0306702
9.055                0.981429185     -77.1497671
9.056                0.981385207     -77.2691618
9.057                0.981341099     -77.3888549
9.058                 0.98129686     -77.5088475
9.059                0.981252491     -77.6291403
9.06                 0.981207991     -77.7497344
9.061                 0.98116336     -77.8706306
9.062                0.981118597     -77.9918297
9.063                0.981073702     -78.1133328
9.064                0.981028676     -78.2351406
9.065                0.980983517     -78.3572542
9.066                0.980938226     -78.4796743
9.067                0.980892802      -78.602402
9.068                0.980847246     -78.7254381
9.069                0.980801556     -78.8487836
9.07                 0.980755732     -78.9724393
9.071                0.980709775     -79.0964061
9.072                0.980663685     -79.2206851
9.073                 0.98061746      -79.345277
9.074                  0.9805711     -79.4701829
9.075                0.980524606     -79.5954036
9.076                0.980477977     -79.7209401
9.077                0.980431214     -79.8467933
9.078                0.980384315     -79.9729642
9.079                 0.98033728     -80.0994535
9.08                  0.98029011     -80.2262624
9.081                0.980242804     -80.3533917
9.082                0.980195362     -80.4808424
9.083                0.980147783     -80.6086154
9.084                0.980100068     -80.7367116
9.085                0.980052216     -80.8651319
9.086                0.980004227     -80.9938774
9.087                0.979956101      -81.122949
9.088                0.979907838     -81.2523476
9.089                0.979859437     -81.3820741
9.09                 0.979810898     -81.5121295
9.091                0.979762222     -81.6425148
9.092                0.979713407     -81.7732309
9.093                0.979664454     -81.9042788
9.094                0.979615363     -82.0356594
9.095                0.979566132     -82.1673736
9.096                0.979516763     -82.2994225
9.097                0.979467255      -82.431807
9.098                0.979417608      -82.564528
9.099                0.979367821     -82.6975865
9.1                  0.979317895     -82.8309836
9.101                0.979267829       -82.96472
9.102                0.979217624     -83.0987969
9.103                0.979167278     -83.2332152
9.104                0.979116792     -83.3679758
9.105                0.979066166     -83.5030797
9.106                0.979015399      -83.638528
9.107                0.978964492     -83.7743214
9.108                0.978913444     -83.9104612
9.109                0.978862255     -84.0469481
9.11                 0.978810925     -84.1837833
9.111                0.978759454     -84.3209676
9.112                0.978707842     -84.4585021
9.113                0.978656089     -84.5963877
9.114                0.978604194     -84.7346254
9.115                0.978552157     -84.8732163
9.116                0.978499979     -85.0121612
9.117                0.978447658     -85.1514612
9.118                0.978395196     -85.2911172
9.119                0.978342592     -85.4311303
9.12                 0.978289846     -85.5715015
9.121                0.978236957     -85.7122316
9.122                0.978183927     -85.8533217
9.123                0.978130754     -85.9947729
9.124                0.978077438     -86.1365861
9.125                 0.97802398     -86.2787622
9.126                 0.97797038     -86.4213023
9.127                0.977916636     -86.5642074
9.128                0.977862751     -86.7074785
9.129                0.977808722     -86.8511165
9.13                 0.977754551     -86.9951225
9.131                0.977700236     -87.1394975
9.132                0.977645779     -87.2842424
9.133                0.977591179     -87.4293583
9.134                0.977536437     -87.5748461
9.135                0.977481551     -87.7207069
9.136                0.977426522     -87.8669417
9.137                 0.97737135     -88.0135514
9.138                0.977316036      -88.160537
9.139                0.977260578     -88.3078997
9.14                 0.977204977     -88.4556402
9.141                0.977149234     -88.6037598
9.142                0.977093347     -88.7522593
9.143                0.977037318     -88.9011398
9.144                0.976981145     -89.0504022
9.145                 0.97692483     -89.2000476
9.146                0.976868372      -89.350077
9.147                0.976811771     -89.5004914
9.148                0.976755028     -89.6512918
9.149                0.976698142     -89.8024791
9.15                 0.976641113     -89.9540544
9.151                0.976583942     -90.1060188
9.152                0.976526628     -90.2583731
9.153                0.976469172     -90.4111184
9.154                0.976411573     -90.5642557
9.155                0.976353833      -90.717786
9.156                 0.97629595     -90.8717104
9.157                0.976237926     -91.0260297
9.158                0.976179759      -91.180745
9.159                0.976121451     -91.3358574
9.16                 0.976063001     -91.4913678
9.161                 0.97600441     -91.6472771
9.162                0.975945677     -91.8035865
9.163                0.975886804     -91.9602969
9.164                0.975827789     -92.1174093
9.165                0.975768633     -92.2749247
9.166                0.975709337     -92.4328441
9.167                  0.9756499     -92.5911685
9.168                0.975590323     -92.7498989
9.169                0.975530606     -92.9090363
9.17                 0.975470749     -93.0685816
9.171                0.975410753     -93.2285359
9.172                0.975350617     -93.3889002
9.173                0.975290341     -93.5496755
9.174                0.975229927     -93.7108627
9.175                0.975169374     -93.8724628
9.176                0.975108683     -94.0344768
9.177                0.975047853     -94.1969057
9.178                0.974986885     -94.3597506
9.179                 0.97492578     -94.5230122
9.18                 0.974864537     -94.6866918
9.181                0.974803157     -94.8507901
9.182                0.974741641     -95.0153083
9.183                0.974679988     -95.1802472
9.184                0.974618199     -95.3456079
9.185                0.974556274     -95.5113913
9.186                0.974494213     -95.6775984
9.187                0.974432018     -95.8442302
9.188                0.974369688     -96.0112876
9.189                0.974307223     -96.1787716
9.19                 0.974244625     -96.3466832
9.191                0.974181892     -96.5150233
9.192                0.974119027     -96.6837928
9.193                0.974056029     -96.8529928
9.194                0.973992898     -97.0226242
9.195                0.973929636     -97.1926879
9.196                0.973866242     -97.3631849
9.197                0.973802717     -97.5341161
9.198                0.973739062     -97.7054825
9.199                0.973675276      -97.877285
9.2                  0.973611361     -98.0495245
9.201                0.973547317      -98.222202
9.202                0.973483144     -98.3953184
9.203                0.973418843     -98.5688747
9.204                0.973354414     -98.7428717
9.205                0.973289859     -98.9173105
9.206                0.973225177     -99.0921918
9.207                0.973160369     -99.2675166
9.208                0.973095435     -99.4432859
9.209                0.973030377     -99.6195005
9.21                 0.972965195     -99.7961614
9.211                0.972899889     -99.9732694
9.212                0.972834461     -100.150825
9.213                 0.97276891      -100.32883
9.214                0.972703237     -100.507285
9.215                0.972637443     -100.686191
9.216                0.972571529     -100.865548
9.217                0.972505496     -101.045358
9.218                0.972439343     -101.225621
9.219                0.972373072     -101.406338
9.22                 0.972306684      -101.58751
9.221                0.972240179     -101.769138
9.222                0.972173558     -101.951223
9.223                0.972106821     -102.133766
9.224                 0.97203997     -102.316767
9.225                0.971973006     -102.500227
9.226                0.971905928     -102.684148
9.227                0.971838738      -102.86853
9.228                0.971771437     -103.053373
9.229                0.971704026     -103.238679
9.23                 0.971636505     -103.424449
9.231                0.971568875     -103.610683
9.232                0.971501137     -103.797381
9.233                0.971433292     -103.984546
9.234                0.971365341     -104.172178
9.235                0.971297286     -104.360277
9.236                0.971229125     -104.548844
9.237                0.971160862      -104.73788
9.238                0.971092496     -104.927386
9.239                0.971024029     -105.117362
9.24                 0.970955462      -105.30781
9.241                0.970886795      -105.49873
9.242                0.970818031     -105.690122
9.243                0.970749168     -105.881989
9.244                 0.97068021     -106.074329
9.245                0.970611157     -106.267144
9.246                0.970542009     -106.460435
9.247                0.970472769     -106.654203
9.248                0.970403437     -106.848448
9.249                0.970334014      -107.04317
9.25                 0.970264501     -107.238371
9.251                0.970194901     -107.434051
9.252                0.970125213     -107.630211
9.253                0.970055439     -107.826851
9.254                 0.96998558     -108.023973
9.255                0.969915638     -108.221577
9.256                0.969845613     -108.419663
9.257                0.969775508     -108.618232
9.258                0.969705322     -108.817284
9.259                0.969635058     -109.016822
9.26                 0.969564717     -109.216844
9.261                  0.9694943     -109.417351
9.262                0.969423809     -109.618345
9.263                0.969353245     -109.819825
9.264                0.969282608     -110.021793
9.265                0.969211902     -110.224249
9.266                0.969141126     -110.427193
9.267                0.969070283     -110.630626
9.268                0.968999374     -110.834548
9.269                  0.9689284     -111.038961
9.27                 0.968857363     -111.243864
9.271                0.968786265     -111.449258
9.272                0.968715106     -111.655144
9.273                0.968643889     -111.861521
9.274                0.968572615     -112.068392
9.275                0.968501285     -112.275755
9.276                0.968429902     -112.483611
9.277                0.968358466     -112.691962
9.278                0.968286979     -112.900806
9.279                0.968215444     -113.110146
9.28                 0.968143861     -113.319981
9.281                0.968072233     -113.530311
9.282                 0.96800056     -113.741137
9.283                0.967928846     -113.952459
9.284                 0.96785709     -114.164278
9.285                0.967785296     -114.376595
9.286                0.967713465     -114.589408
9.287                0.967641599     -114.802719
9.288                  0.9675697     -115.016529
9.289                0.967497769     -115.230836
9.29                 0.967425808     -115.445643
9.291                0.967353819     -115.660948
9.292                0.967281804     -115.876752
9.293                0.967209766     -116.093056
9.294                0.967137705      -116.30986
9.295                0.967065624     -116.527163
9.296                0.966993524     -116.744967
9.297                0.966921408     -116.963271
9.298                0.966849278     -117.182076
9.299                0.966777136     -117.401381
9.3                  0.966704983     -117.621187
9.301                0.966632823     -117.841494
9.302                0.966560656     -118.062303
9.303                0.966488485     -118.283613
9.304                0.966416312     -118.505424
9.305                0.966344139     -118.727737
9.306                0.966271969     -118.950551
9.307                0.966199803     -119.173867
9.308                0.966127644     -119.397685
9.309                0.966055494     -119.622005
9.31                 0.965983355     -119.846826
9.311                0.965911229     -120.072149
9.312                0.965839119     -120.297974
9.313                0.965767027     -120.524301
9.314                0.965694955     -120.751129
9.315                0.965622905     -120.978459
9.316                0.965550881     -121.206291
9.317                0.965478883     -121.434624
9.318                0.965406916     -121.663459
9.319                 0.96533498     -121.892795
9.32                 0.965263078     -122.122632
9.321                0.965191214      -122.35297
9.322                0.965119389     -122.583809
9.323                0.965047605     -122.815149
9.324                0.964975866     -123.046989
9.325                0.964904173     -123.279329
9.326                 0.96483253      -123.51217
9.327                0.964760939      -123.74551
9.328                0.964689402     -123.979349
9.329                0.964617921     -124.213688
9.33                 0.964546501     -124.448526
9.331                0.964475143     -124.683862
9.332                0.964403849     -124.919697
9.333                0.964332623     -125.156029
9.334                0.964261467     -125.392859
9.335                0.964190384     -125.630186
9.336                0.964119376      -125.86801
9.337                0.964048447      -126.10633
9.338                0.963977598     -126.345145
9.339                0.963906833     -126.584456
9.34                 0.963836155     -126.824262
9.341                0.963765566     -127.064562
9.342                 0.96369507     -127.305357
9.343                0.963624668     -127.546644
9.344                0.963554364     -127.788424
9.345                0.963484161     -128.030696
9.346                0.963414061      -128.27346
9.347                0.963344068     -128.516714
9.348                0.963274184     -128.760459
9.349                0.963204412     -129.004693
9.35                 0.963134755     -129.249416
9.351                0.963065217     -129.494628
9.352                  0.9629958     -129.740326
9.353                0.962926507     -129.986512
9.354                0.962857341     -130.233183
9.355                0.962788305      -130.48034
9.356                0.962719402     -130.727981
9.357                0.962650636     -130.976105
9.358                0.962582009     -131.224712
9.359                0.962513524     -131.473801
9.36                 0.962445185      -131.72337
9.361                0.962376994      -131.97342
9.362                0.962308955     -132.223949
9.363                0.962241071     -132.474955
9.364                0.962173345     -132.726439
9.365                 0.96210578     -132.978399
9.366                0.962038379     -133.230834
9.367                0.961971146     -133.483743
9.368                0.961904083     -133.737124
9.369                0.961837195     -133.990978
9.37                 0.961770483     -134.245303
9.371                0.961703952     -134.500097
9.372                0.961637604     -134.755359
9.373                0.961571444     -135.011089
9.374                0.961505473     -135.267284
9.375                0.961439696     -135.523945
9.376                0.961374115     -135.781069
9.377                0.961308735     -136.038655
9.378                0.961243558     -136.296703
9.379                0.961178587      -136.55521
9.38                 0.961113827     -136.814175
9.381                0.961049279     -137.073597
9.382                0.960984948     -137.333475
9.383                0.960920838     -137.593807
9.384                 0.96085695     -137.854592
9.385                0.960793289     -138.115828
9.386                0.960729859     -138.377514
9.387                0.960666662     -138.639648
9.388                0.960603701     -138.902229
9.389                0.960540981     -139.165255
9.39                 0.960478505     -139.428725
9.391                0.960416275     -139.692636
9.392                0.960354296     -139.956988
9.393                0.960292571     -140.221779
9.394                0.960231103     -140.487007
9.395                0.960169896      -140.75267
9.396                0.960108953     -141.018767
9.397                0.960048278     -141.285295
9.398                0.959987873     -141.552254
9.399                0.959927743     -141.819641
9.4                  0.959867891     -142.087455
9.401                0.959808321     -142.355693
9.402                0.959749035     -142.624354
9.403                0.959690037     -142.893436
9.404                0.959631331     -143.162936
9.405                 0.95957292     -143.432854
9.406                0.959514808     -143.703187
9.407                0.959456998     -143.973933
9.408                0.959399493      -144.24509
9.409                0.959342297     -144.516656
9.41                 0.959285413     -144.788629
9.411                0.959228845     -145.061007
9.412                0.959172597     -145.333787
9.413                0.959116671     -145.606969
9.414                0.959061071     -145.880548
9.415                0.959005801     -146.154524
9.416                0.958950863     -146.428894
9.417                0.958896262     -146.703656
9.418                0.958842001     -146.978807
9.419                0.958788082     -147.254346
9.42                 0.958734511      -147.53027
9.421                0.958681289     -147.806576
9.422                0.958628421     -148.083263
9.423                0.958575909     -148.360327
9.424                0.958523757     -148.637767
9.425                0.958471969      -148.91558
9.426                0.958420548     -149.193764
9.427                0.958369497     -149.472316
9.428                0.958318819     -149.751233
9.429                0.958268518     -150.030514
9.43                 0.958218598     -150.310155
9.431                 0.95816906     -150.590154
9.432                 0.95811991     -150.870509
9.433                0.958071149     -151.151216
9.434                0.958022782     -151.432274
9.435                0.957974811     -151.713679
9.436                 0.95792724     -151.995429
9.437                0.957880071     -152.277521
9.438                0.957833309     -152.559953
9.439                0.957786957     -152.842721
9.44                 0.957741017     -153.125823
9.441                0.957695492     -153.409255
9.442                0.957650387     -153.693017
9.443                0.957605703     -153.977103
9.444                0.957561445     -154.261512
9.445                0.957517614     -154.546241
9.446                0.957474215     -154.831286
9.447                 0.95743125     -155.116645
9.448                0.957388723     -155.402315
9.449                0.957346636     -155.688293
9.45                 0.957304992     -155.974575
9.451                0.957263795     -156.261159
9.452                0.957223046     -156.548042
9.453                 0.95718275     -156.835221
9.454                 0.95714291     -157.122692
9.455                0.957103527     -157.410453
9.456                0.957064605       -157.6985
9.457                0.957026146     -157.986831
9.458                0.956988154     -158.275441
9.459                0.956950632     -158.564328
9.46                 0.956913581     -158.853489
9.461                0.956877006      -159.14292
9.462                0.956840907     -159.432619
9.463                0.956805289     -159.722581
9.464                0.956770154     -160.012804
9.465                0.956735504     -160.303285
9.466                0.956701342     -160.594019
9.467                0.956667671     -160.885004
9.468                0.956634493     -161.176236
9.469                0.956601811     -161.467712
9.47                 0.956569627     -161.759428
9.471                0.956537943     -162.051382
9.472                0.956506763     -162.343569
9.473                0.956476088     -162.635987
9.474                 0.95644592     -162.928631
9.475                0.956416263     -163.221498
9.476                0.956387118     -163.514585
9.477                0.956358488     -163.807888
9.478                0.956330375     -164.101404
9.479                0.956302781     -164.395129
9.48                 0.956275708     -164.689059
9.481                0.956249158     -164.983192
9.482                0.956223134     -165.277523
9.483                0.956197637     -165.572048
9.484                 0.95617267     -165.866765
9.485                0.956148235     -166.161668
9.486                0.956124332     -166.456756
9.487                0.956100965     -166.752024
9.488                0.956078136     -167.047468
9.489                0.956055845     -167.343085
9.49                 0.956034095     -167.638871
9.491                0.956012888     -167.934822
9.492                0.955992225     -168.230935
9.493                0.955972109     -168.527206
9.494                0.955952539      -168.82363
9.495                0.955933519     -169.120205
9.496                 0.95591505     -169.416926
9.497                0.955897133     -169.713789
9.498                 0.95587977     -170.010792
9.499                0.955862963     -170.307929
9.5                  0.955846711     -170.605198
9.501                0.955831018     -170.902594
9.502                0.955815884     -171.200113
9.503                0.955801311     -171.497752
9.504                  0.9557873     -171.795506
9.505                0.955773851     -172.093373
9.506                0.955760967     -172.391347
9.507                0.955748648     -172.689425
9.508                0.955736895     -172.987604
9.509                0.955725709     -173.285878
9.51                 0.955715092     -173.584245
9.511                0.955705044       -173.8827
9.512                0.955695566     -174.181239
9.513                0.955686659     -174.479859
9.514                0.955678324     -174.778556
9.515                0.955670562     -175.077324
9.516                0.955663372     -175.376162
9.517                0.955656756     -175.675064
9.518                0.955650715     -175.974026
9.519                0.955645249     -176.273045
9.52                 0.955640359     -176.572117
9.521                0.955636044     -176.871237
9.522                0.955632307     -177.170402
9.523                0.955629146     -177.469608
9.524                0.955626562      -177.76885
9.525                0.955624556     -178.068124
9.526                0.955623127     -178.367428
9.527                0.955622277     -178.666756
9.528                0.955622005     -178.966104
9.529                0.955622311      -179.26547
9.53                 0.955623195     -179.564847
9.531                0.955624658     -179.864233
9.532                  0.9556267      179.836376
9.533                0.955629319      179.536985
9.534                0.955632517      179.237597
9.535                0.955636293      178.938217
9.536                0.955640647      178.638848
9.537                0.955645578      178.339495
9.538                0.955651087      178.040162
9.539                0.955657172      177.740852
9.54                 0.955663834      177.441569
9.541                0.955671073      177.142319
9.542                0.955678887      176.843104
9.543                0.955687276      176.543928
9.544                 0.95569624      176.244797
9.545                0.955705778      175.945712
9.546                0.955715889       175.64668
9.547                0.955726572      175.347703
9.548                0.955737828      175.048786
9.549                0.955749655      174.749932
9.55                 0.955762052      174.451146
9.551                0.955775018      174.152431
9.552                0.955788553      173.853792
9.553                0.955802655      173.555232
9.554                0.955817324      173.256755
9.555                0.955832558      172.958366
9.556                0.955848357      172.660068
9.557                0.955864719      172.361866
9.558                0.955881642      172.063762
9.559                0.955899127      171.765762
9.56                 0.955917171      171.467868
9.561                0.955935773      171.170085
9.562                0.955954932      170.872417
9.563                0.955974647      170.574868
9.564                0.955994915      170.277441
9.565                0.956015737       169.98014
9.566                0.956037109       169.68297
9.567                 0.95605903      169.385933
9.568                  0.9560815      169.089034
9.569                0.956104515      168.792278
9.57                 0.956128075      168.495666
9.571                0.956152178      168.199204
9.572                0.956176822      167.902895
9.573                0.956202006      167.606742
9.574                0.956227726      167.310751
9.575                0.956253983      167.014923
9.576                0.956280772      166.719264
9.577                0.956308094      166.423776
9.578                0.956335945      166.128464
9.579                0.956364324      165.833331
9.58                 0.956393229      165.538381
9.581                0.956422657      165.243617
9.582                0.956452606      164.949044
9.583                0.956483075      164.654664
9.584                0.956514061      164.360482
9.585                0.956545562      164.066501
9.586                0.956577575      163.772725
9.587                0.956610098      163.479156
9.588                0.956643129        163.1858
9.589                0.956676666      162.892659
9.59                 0.956710706      162.599736
9.591                0.956745246      162.307036
9.592                0.956780285      162.014562
9.593                0.956815819      161.722317
9.594                0.956851847      161.430305
9.595                0.956888365      161.138529
9.596                0.956925371      160.846993
9.597                0.956962863        160.5557
9.598                0.957000838      160.264653
9.599                0.957039292      159.973856
9.6                  0.957078225      159.683312
9.601                0.957117631      159.393025