! TOUCHSTONE file generated by CST DESIGN STUDIO
! Date and time: Tue Feb  4 14:19:33 2025
! Project name: C:\Work\MatlabApps\UnitCellOptimizationMatlab\CST\unitcell.cst
! Tree item: Tasks\Sweep1\SPara1\S-Parameters
! Header version: 2024
! Port assignment regex: !\s*Touchstone port\s*([0-9]+)\s*=\s*(CST MWS port|CST DES external port|CST DES block port)\s*(.+)\s* \(\"(.*)\"\)(\s*mode\s*([0-9]+))?.*
! Touchstone port assignment:
! Touchstone port 1 = CST DES external port 1 ("")
# GHz S MA R 50
9                    0.972479504     -45.4488508
9.001                 0.97238154     -45.5048436
9.002                0.972283367     -45.5609374
9.003                0.972184984     -45.6171326
9.004                0.972086392     -45.6734296
9.005                0.971987589     -45.7298286
9.006                0.971888576     -45.7863301
9.007                0.971789353     -45.8429342
9.008                 0.97168992     -45.8996415
9.009                0.971590276     -45.9564522
9.01                 0.971490421     -46.0133667
9.011                0.971390355     -46.0703853
9.012                0.971290078     -46.1275083
9.013                0.971189589     -46.1847362
9.014                0.971088889     -46.2420693
9.015                0.970987977     -46.2995078
9.016                0.970886854     -46.3570522
9.017                0.970785518     -46.4147028
9.018                 0.97068397       -46.47246
9.019                0.970582209     -46.5303241
9.02                 0.970480236     -46.5882955
9.021                 0.97037805     -46.6463745
9.022                 0.97027565     -46.7045615
9.023                0.970173037     -46.7628569
9.024                0.970070211      -46.821261
9.025                0.969967171     -46.8797741
9.026                0.969863916     -46.9383967
9.027                0.969760447     -46.9971292
9.028                0.969656764     -47.0559718
9.029                0.969552866     -47.1149249
9.03                 0.969448753      -47.173989
9.031                0.969344424     -47.2331644
9.032                 0.96923988     -47.2924514
9.033                 0.96913512     -47.3518505
9.034                0.969030144      -47.411362
9.035                0.968924952     -47.4709862
9.036                0.968819543     -47.5307237
9.037                0.968713917     -47.5905747
9.038                0.968608073     -47.6505396
9.039                0.968502012     -47.7106189
9.04                 0.968395734     -47.7708128
9.041                0.968289237     -47.8311219
9.042                0.968182522     -47.8915464
9.043                0.968075589     -47.9520868
9.044                0.967968436     -48.0127434
9.045                0.967861064     -48.0735167
9.046                0.967753472      -48.134407
9.047                 0.96764566     -48.1954148
9.048                0.967537629     -48.2565404
9.049                0.967429376     -48.3177842
9.05                 0.967320903     -48.3791467
9.051                0.967212208     -48.4406282
9.052                0.967103292     -48.5022291
9.053                0.966994153     -48.5639499
9.054                0.966884793     -48.6257909
9.055                 0.96677521     -48.6877525
9.056                0.966665404     -48.7498353
9.057                0.966555374     -48.8120395
9.058                0.966445121     -48.8743655
9.059                0.966334643     -48.9368139
9.06                 0.966223942      -48.999385
9.061                0.966113015     -49.0620792
9.062                0.966001863      -49.124897
9.063                0.965890485     -49.1878387
9.064                0.965778882     -49.2509048
9.065                0.965667052     -49.3140957
9.066                0.965554995     -49.3774119
9.067                0.965442711     -49.4408537
9.068                  0.9653302     -49.5044217
9.069                 0.96521746     -49.5681161
9.07                 0.965104492     -49.6319375
9.071                0.964991295     -49.6958863
9.072                0.964877869     -49.7599629
9.073                0.964764213     -49.8241677
9.074                0.964650327     -49.8885012
9.075                0.964536211     -49.9529639
9.076                0.964421863     -50.0175562
9.077                0.964307284     -50.0822784
9.078                0.964192473     -50.1471312
9.079                 0.96407743     -50.2121148
9.08                 0.963962154     -50.2772298
9.081                0.963846644     -50.3424766
9.082                0.963730901     -50.4078556
9.083                0.963614924     -50.4733674
9.084                0.963498711     -50.5390123
9.085                0.963382264     -50.6047908
9.086                0.963265581     -50.6707035
9.087                0.963148662     -50.7367506
9.088                0.963031506     -50.8029328
9.089                0.962914114     -50.8692504
9.09                 0.962796483      -50.935704
9.091                0.962678614     -51.0022939
9.092                0.962560507     -51.0690207
9.093                0.962442161     -51.1358849
9.094                0.962323574     -51.2028869
9.095                0.962204748     -51.2700271
9.096                0.962085681     -51.3373061
9.097                0.961966373     -51.4047243
9.098                0.961846822     -51.4722823
9.099                 0.96172703     -51.5399805
9.1                  0.961606995     -51.6078193
9.101                0.961486716     -51.6757993
9.102                0.961366193      -51.743921
9.103                0.961245426     -51.8121848
9.104                0.961124413     -51.8805912
9.105                0.961003155     -51.9491408
9.106                 0.96088165      -52.017834
9.107                0.960759899     -52.0866713
9.108                0.960637901     -52.1556532
9.109                0.960515654     -52.2247802
9.11                 0.960393159     -52.2940529
9.111                0.960270414     -52.3634716
9.112                 0.96014742      -52.433037
9.113                0.960024176     -52.5027496
9.114                 0.95990068     -52.5726098
9.115                0.959776933     -52.6426181
9.116                0.959652934     -52.7127751
9.117                0.959528682     -52.7830813
9.118                0.959404176     -52.8535372
9.119                0.959279417     -52.9241434
9.12                 0.959154403     -52.9949003
9.121                0.959029133     -53.0658084
9.122                0.958903607     -53.1368684
9.123                0.958777825     -53.2080806
9.124                0.958651786     -53.2794458
9.125                0.958525488     -53.3509643
9.126                0.958398932     -53.4226367
9.127                0.958272117     -53.4944636
9.128                0.958145042     -53.5664455
9.129                0.958017706     -53.6385829
9.13                 0.957890109     -53.7108764
9.131                 0.95776225     -53.7833265
9.132                0.957634128     -53.8559338
9.133                0.957505743     -53.9286988
9.134                0.957377094      -54.001622
9.135                 0.95724818     -54.0747041
9.136                0.957119001     -54.1479455
9.137                0.956989556     -54.2213469
9.138                0.956859844     -54.2949087
9.139                0.956729864     -54.3686316
9.14                 0.956599616     -54.4425162
9.141                0.956469099     -54.5165628
9.142                0.956338312     -54.5907723
9.143                0.956207255      -54.665145
9.144                0.956075926     -54.7396817
9.145                0.955944326     -54.8143827
9.146                0.955812453     -54.8892489
9.147                0.955680306     -54.9642806
9.148                0.955547885     -55.0394786
9.149                0.955415189     -55.1148433
9.15                 0.955282218     -55.1903753
9.151                 0.95514897     -55.2660754
9.152                0.955015444     -55.3419439
9.153                0.954881641     -55.4179816
9.154                0.954747559     -55.4941891
9.155                0.954613197     -55.5705668
9.156                0.954478554     -55.6471155
9.157                0.954343631     -55.7238357
9.158                0.954208425      -55.800728
9.159                0.954072937      -55.877793
9.16                 0.953937164     -55.9550314
9.161                0.953801108     -56.0324437
9.162                0.953664766     -56.1100306
9.163                0.953528138     -56.1877927
9.164                0.953391223     -56.2657306
9.165                 0.95325402     -56.3438448
9.166                0.953116529     -56.4221362
9.167                0.952978748     -56.5006051
9.168                0.952840677     -56.5792524
9.169                0.952702315     -56.6580786
9.17                 0.952563661     -56.7370843
9.171                0.952424714     -56.8162702
9.172                0.952285473     -56.8956369
9.173                0.952145938     -56.9751851
9.174                0.952006108     -57.0549154
9.175                 0.95186598     -57.1348284
9.176                0.951725556     -57.2149249
9.177                0.951584834     -57.2952053
9.178                0.951443813     -57.3756705
9.179                0.951302491      -57.456321
9.18                  0.95116087     -57.5371574
9.181                0.951018946     -57.6181806
9.182                 0.95087672     -57.6993911
9.183                 0.95073419     -57.7807895
9.184                0.950591356     -57.8623766
9.185                0.950448217      -57.944153
9.186                0.950304771     -58.0261195
9.187                0.950161018     -58.1082765
9.188                0.950016957      -58.190625
9.189                0.949872587     -58.2731654
9.19                 0.949727908     -58.3558986
9.191                0.949582917     -58.4388251
9.192                0.949437614     -58.5219457
9.193                0.949291999     -58.6052611
9.194                0.949146069     -58.6887719
9.195                0.948999825     -58.7724789
9.196                0.948853266     -58.8563827
9.197                0.948706389     -58.9404841
9.198                0.948559196     -59.0247838
9.199                0.948411683     -59.1092824
9.2                  0.948263851     -59.1939806
9.201                0.948115698     -59.2788793
9.202                0.947967224      -59.363979
9.203                0.947818427     -59.4492806
9.204                0.947669306     -59.5347847
9.205                0.947519861      -59.620492
9.206                0.947370091     -59.7064033
9.207                0.947219994     -59.7925193
9.208                0.947069569     -59.8788408
9.209                0.946918815     -59.9653684
9.21                 0.946767732     -60.0521029
9.211                0.946616319     -60.1390451
9.212                0.946464574     -60.2261956
9.213                0.946312496     -60.3135553
9.214                0.946160084     -60.4011248
9.215                0.946007337      -60.488905
9.216                0.945854255     -60.5768966
9.217                0.945700835     -60.6651003
9.218                0.945547078     -60.7535169
9.219                0.945392982     -60.8421471
9.22                 0.945238546     -60.9309918
9.221                0.945083768     -61.0200517
9.222                0.944928649     -61.1093275
9.223                0.944773186       -61.19882
9.224                0.944617379     -61.2885301
9.225                0.944461226     -61.3784584
9.226                0.944304727     -61.4686058
9.227                0.944147881     -61.5589731
9.228                0.943990685      -61.649561
9.229                 0.94383314     -61.7403704
9.23                 0.943675245      -61.831402
9.231                0.943516997     -61.9226566
9.232                0.943358396      -62.014135
9.233                0.943199441     -62.1058381
9.234                0.943040131     -62.1977666
9.235                0.942880464     -62.2899213
9.236                 0.94272044     -62.3823031
9.237                0.942560057     -62.4749128
9.238                0.942399315     -62.5677512
9.239                0.942238211     -62.6608191
9.24                 0.942076746     -62.7541173
9.241                0.941914917     -62.8476467
9.242                0.941752725      -62.941408
9.243                0.941590167     -63.0354023
9.244                0.941427242     -63.1296301
9.245                 0.94126395     -63.2240925
9.246                0.941100288     -63.3187903
9.247                0.940936257     -63.4137242
9.248                0.940771855     -63.5088952
9.249                 0.94060708     -63.6043041
9.25                 0.940441932     -63.6999518
9.251                0.940276409     -63.7958391
9.252                0.940110511     -63.8919668
9.253                0.939944235     -63.9883359
9.254                0.939777582     -64.0849472
9.255                0.939610549     -64.1818016
9.256                0.939443135        -64.2789
9.257                 0.93927534     -64.3762432
9.258                0.939107163     -64.4738322
9.259                0.938938601     -64.5716677
9.26                 0.938769654     -64.6697508
9.261                 0.93860032     -64.7680822
9.262                0.938430599      -64.866663
9.263                0.938260489     -64.9654939
9.264                0.938089989     -65.0645759
9.265                0.937919098     -65.1639099
9.266                0.937747815     -65.2634968
9.267                0.937576137     -65.3633376
9.268                0.937404066      -65.463433
9.269                0.937231598     -65.5637841
9.27                 0.937058733     -65.6643918
9.271                0.936885469      -65.765257
9.272                0.936711806     -65.8663806
9.273                0.936537742     -65.9677636
9.274                0.936363276     -66.0694069
9.275                0.936188407     -66.1713114
9.276                0.936013133      -66.273478
9.277                0.935837453     -66.3759079
9.278                0.935661366     -66.4786017
9.279                0.935484872     -66.5815607
9.28                 0.935307967     -66.6847856
9.281                0.935130653     -66.7882774
9.282                0.934952926     -66.8920372
9.283                0.934774786     -66.9960658
9.284                0.934596232     -67.1003643
9.285                0.934417262     -67.2049336
9.286                0.934237876     -67.3097748
9.287                0.934058071     -67.4148887
9.288                0.933877847     -67.5202763
9.289                0.933697203     -67.6259388
9.29                 0.933516137     -67.7318769
9.291                0.933334648     -67.8380918
9.292                0.933152734     -67.9445845
9.293                0.932970396     -68.0513559
9.294                 0.93278763     -68.1584071
9.295                0.932604437      -68.265739
9.296                0.932420814     -68.3733527
9.297                0.932236761     -68.4812492
9.298                0.932052276     -68.5894296
9.299                0.931867358     -68.6978947
9.3                  0.931682006     -68.8066458
9.301                0.931496219     -68.9156837
9.302                0.931309995     -69.0250096
9.303                0.931123333     -69.1346244
9.304                0.930936232     -69.2445293
9.305                 0.93074869     -69.3547252
9.306                0.930560707     -69.4652133
9.307                0.930372281     -69.5759945
9.308                0.930183411       -69.68707
9.309                0.929994096     -69.7984408
9.31                 0.929804333     -69.9101079
9.311                0.929614124     -70.0220724
9.312                0.929423465     -70.1343354
9.313                0.929232355      -70.246898
9.314                0.929040795     -70.3597613
9.315                0.928848781     -70.4729263
9.316                0.928656313     -70.5863941
9.317                0.928463391     -70.7001659
9.318                0.928270011     -70.8142426
9.319                0.928076174     -70.9286255
9.32                 0.927881878     -71.0433156
9.321                0.927687122      -71.158314
9.322                0.927491905     -71.2736219
9.323                0.927296225     -71.3892403
9.324                0.927100081     -71.5051703
9.325                0.926903472     -71.6214132
9.326                0.926706397     -71.7379699
9.327                0.926508854     -71.8548417
9.328                0.926310843     -71.9720297
9.329                0.926112362      -72.089535
9.33                  0.92591341     -72.2073587
9.331                0.925713985      -72.325502
9.332                0.925514087     -72.4439661
9.333                0.925313715     -72.5627521
9.334                0.925112866     -72.6818611
9.335                0.924911541     -72.8012943
9.336                0.924709737     -72.9210529
9.337                0.924507454     -73.0411381
9.338                 0.92430469      -73.161551
9.339                0.924101445     -73.2822928
9.34                 0.923897717     -73.4033646
9.341                0.923693504     -73.5247677
9.342                0.923488807     -73.6465032
9.343                0.923283623     -73.7685724
9.344                0.923077951     -73.8909764
9.345                0.922871791     -74.0137164
9.346                0.922665141     -74.1367936
9.347                   0.922458     -74.2602093
9.348                0.922250367     -74.3839646
9.349                0.922042241     -74.5080608
9.35                  0.92183362      -74.632499
9.351                0.921624504     -74.7572805
9.352                0.921414892     -74.8824066
9.353                0.921204782     -75.0078784
9.354                0.920994173     -75.1336971
9.355                0.920783065     -75.2598641
9.356                0.920571455     -75.3863806
9.357                0.920359344     -75.5132478
9.358                 0.92014673     -75.6404669
9.359                0.919933611     -75.7680392
9.36                 0.919719988     -75.8959659
9.361                0.919505858     -76.0242484
9.362                0.919291221     -76.1528879
9.363                0.919076076     -76.2818856
9.364                0.918860422     -76.4112428
9.365                0.918644257     -76.5409609
9.366                0.918427581      -76.671041
9.367                0.918210393     -76.8014844
9.368                0.917992692     -76.9322925
9.369                0.917774476     -77.0634665
9.37                 0.917555746     -77.1950078
9.371                0.917336499     -77.3269176
9.372                0.917116735     -77.4591972
9.373                0.916896454     -77.5918479
9.374                0.916675653     -77.7248711
9.375                0.916454332      -77.858268
9.376                0.916232491     -77.9920399
9.377                0.916010128     -78.1261883
9.378                0.915787243     -78.2607144
9.379                0.915563834     -78.3956195
9.38                 0.915339901      -78.530905
9.381                0.915115443     -78.6665721
9.382                0.914890459     -78.8026224
9.383                0.914664948      -78.939057
9.384                0.914438909     -79.0758773
9.385                0.914212343     -79.2130847
9.386                0.913985247     -79.3506805
9.387                0.913757621     -79.4886661
9.388                0.913529464     -79.6270429
9.389                0.913300776     -79.7658122
9.39                 0.913071556     -79.9049753
9.391                0.912841803     -80.0445337
9.392                0.912611517     -80.1844887
9.393                0.912380696     -80.3248417
9.394                 0.91214934     -80.4655941
9.395                0.911917449     -80.6067472
9.396                0.911685021     -80.7483025
9.397                0.911452057     -80.8902613
9.398                0.911218555     -81.0326251
9.399                0.910984515     -81.1753952
9.4                  0.910749936      -81.318573
9.401                0.910514818       -81.46216
9.402                 0.91027916     -81.6061575
9.403                0.910042962      -81.750567
9.404                0.909806224     -81.8953898
9.405                0.909568944     -82.0406275
9.406                0.909331122     -82.1862813
9.407                0.909092758     -82.3323528
9.408                0.908853851     -82.4788434
9.409                0.908614401     -82.6257544
9.41                 0.908374408     -82.7730874
9.411                0.908133871     -82.9208438
9.412                 0.90789279     -83.0690249
9.413                0.907651164     -83.2176323
9.414                0.907408994     -83.3666674
9.415                0.907166278     -83.5161316
9.416                0.906923017     -83.6660265
9.417                 0.90667921     -83.8163533
9.418                0.906434858     -83.9671137
9.419                0.906189959     -84.1183091
9.42                 0.905944514     -84.2699409
9.421                0.905698522     -84.4220106
9.422                0.905451984     -84.5745196
9.423                  0.9052049     -84.7274695
9.424                0.904957268     -84.8808617
9.425                 0.90470909     -85.0346977
9.426                0.904460365      -85.188979
9.427                0.904211093      -85.343707
9.428                0.903961274     -85.4988833
9.429                0.903710909     -85.6545093
9.43                 0.903459996     -85.8105865
9.431                0.903208537     -85.9671164
9.432                0.902956532     -86.1241005
9.433                 0.90270398     -86.2815403
9.434                0.902450882     -86.4394373
9.435                0.902197238      -86.597793
9.436                0.901943048     -86.7566089
9.437                0.901688312     -86.9158865
9.438                0.901433032     -87.0756274
9.439                0.901177206      -87.235833
9.44                 0.900920836     -87.3965048
9.441                0.900663922     -87.5576443
9.442                0.900406464     -87.7192532
9.443                0.900148463     -87.8813328
9.444                0.899889919     -88.0438847
9.445                0.899630833     -88.2069105
9.446                0.899371205     -88.3704116
9.447                0.899111035     -88.5343896
9.448                0.898850326      -88.698846
9.449                0.898589076     -88.8637823
9.45                 0.898327287     -89.0292001
9.451                 0.89806496     -89.1951009
9.452                0.897802095     -89.3614862
9.453                0.897538693     -89.5283576
9.454                0.897274754     -89.6957165
9.455                0.897010281     -89.8635646
9.456                0.896745273     -90.0319034
9.457                0.896479732     -90.2007343
9.458                0.896213658      -90.370059
9.459                0.895947053      -90.539879
9.46                 0.895679918     -90.7101958
9.461                0.895412253      -90.881011
9.462                 0.89514406     -91.0523261
9.463                 0.89487534     -91.2241426
9.464                0.894606094     -91.3964621
9.465                0.894336324     -91.5692862
9.466                0.894066031     -91.7426163
9.467                0.893795216     -91.9164541
9.468                 0.89352388      -92.090801
9.469                0.893252026     -92.2656587
9.47                 0.892979654     -92.4410286
9.471                0.892706766     -92.6169123
9.472                0.892433363     -92.7933114
9.473                0.892159448     -92.9702274
9.474                0.891885022     -93.1476618
9.475                0.891610086     -93.3256162
9.476                0.891334642     -93.5040921
9.477                0.891058693     -93.6830911
9.478                0.890782239     -93.8626147
9.479                0.890505284     -94.0426645
9.48                 0.890227828     -94.2232419
9.481                0.889949874     -94.4043486
9.482                0.889671424     -94.5859861
9.483                 0.88939248     -94.7681559
9.484                0.889113044     -94.9508595
9.485                0.888833119     -95.1340986
9.486                0.888552706     -95.3178745
9.487                0.888271808     -95.5021889
9.488                0.887990427     -95.6870433
9.489                0.887708566     -95.8724392
9.49                 0.887426228     -96.0583782
9.491                0.887143414     -96.2448617
9.492                0.886860127     -96.4318913
9.493                0.886576371     -96.6194685
9.494                0.886292147     -96.8075949
9.495                0.886007459     -96.9962719
9.496                0.885722309     -97.1855011
9.497                  0.8854367     -97.3752839
9.498                0.885150635      -97.565622
9.499                0.884864118     -97.7565167
9.5                  0.884577151     -97.9479696
9.501                0.884289737     -98.1399822
9.502                0.884001879      -98.332556
9.503                0.883713582     -98.5256925
9.504                0.883424848     -98.7193932
9.505                 0.88313568     -98.9136595
9.506                0.882846082      -99.108493
9.507                0.882556057     -99.3038951
9.508                 0.88226561     -99.4998673
9.509                0.881974743     -99.6964111
9.51                  0.88168346     -99.8935279
9.511                0.881391766     -100.091219
9.512                0.881099664     -100.289486
9.513                0.880807158     -100.488331
9.514                0.880514251     -100.687755
9.515                0.880220949     -100.887758
9.516                0.879927255     -101.088344
9.517                0.879633173     -101.289513
9.518                0.879338708     -101.491266
9.519                0.879043863     -101.693605
9.52                 0.878748644     -101.896532
9.521                0.878453055     -102.100047
9.522                  0.8781571     -102.304153
9.523                0.877860784     -102.508851
9.524                0.877564112     -102.714141
9.525                0.877267089     -102.920026
9.526                0.876969719     -103.126506
9.527                0.876672007     -103.333584
9.528                0.876373958     -103.541261
9.529                0.876075579     -103.749537
9.53                 0.875776872     -103.958414
9.531                0.875477845     -104.167894
9.532                0.875178502     -104.377978
9.533                0.874878849     -104.588667
9.534                 0.87457889     -104.799963
9.535                0.874278633     -105.011866
9.536                0.873978082     -105.224379
9.537                0.873677243     -105.437502
9.538                0.873376122     -105.651236
9.539                0.873074726     -105.865584
9.54                 0.872773059     -106.080546
9.541                0.872471128     -106.296123
9.542                0.872168939     -106.512318
9.543                0.871866499      -106.72913
9.544                0.871563813     -106.946561
9.545                0.871260889     -107.164613
9.546                0.870957733     -107.383286
9.547                0.870654351     -107.602582
9.548                0.870350749     -107.822503
9.549                0.870046936     -108.043048
9.55                 0.869742918      -108.26422
9.551                0.869438701     -108.486019
9.552                0.869134293     -108.708446
9.553                0.868829701     -108.931504
9.554                0.868524932     -109.155192
9.555                0.868219993     -109.379512
9.556                0.867914893     -109.604465
9.557                0.867609637     -109.830053
9.558                0.867304235     -110.056275
9.559                0.866998694     -110.283134
9.56                 0.866693021     -110.510629
9.561                0.866387225     -110.738763
9.562                0.866081313     -110.967537
9.563                0.865775293      -111.19695
9.564                0.865469175     -111.427005
9.565                0.865162965     -111.657702
9.566                0.864856673     -111.889042
9.567                0.864550306     -112.121026
9.568                0.864243874     -112.353655
9.569                0.863937385      -112.58693
9.57                 0.863630848     -112.820851
9.571                0.863324272     -113.055421
9.572                0.863017665     -113.290638
9.573                0.862711037     -113.526505
9.574                0.862404397     -113.763022
9.575                0.862097754      -114.00019
9.576                0.861791118      -114.23801
9.577                0.861484498     -114.476482
9.578                0.861177904     -114.715607
9.579                0.860871344     -114.955386
9.58                  0.86056483      -115.19582
9.581                0.860258371     -115.436909
9.582                0.859951976     -115.678654
9.583                0.859645657     -115.921056
9.584                0.859339422     -116.164115
9.585                0.859033283     -116.407832
9.586                 0.85872725     -116.652207
9.587                0.858421333     -116.897241
9.588                0.858115543     -117.142935
9.589                 0.85780989     -117.389289
9.59                 0.857504386     -117.636304
9.591                0.857199041      -117.88398
9.592                0.856893866     -118.132317
9.593                0.856588872     -118.381316
9.594                0.856284071     -118.630978
9.595                0.855979473     -118.881303
9.596                0.855675091      -119.13229
9.597                0.855370935     -119.383942
9.598                0.855067017     -119.636257
9.599                0.854763349     -119.889236
9.6                  0.854459944      -120.14288
9.601                0.854156811     -120.397188