! TOUCHSTONE file generated by CST DESIGN STUDIO
! Date and time: Tue Feb  4 17:24:04 2025
! Project name: C:\Work\MatlabApps\UnitCellOptimizationMatlab\CST\unitcell.cst
! Tree item: Tasks\Sweep1\SPara1\S-Parameters
! Header version: 2024
! Port assignment regex: !\s*Touchstone port\s*([0-9]+)\s*=\s*(CST MWS port|CST DES external port|CST DES block port)\s*(.+)\s* \(\"(.*)\"\)(\s*mode\s*([0-9]+))?.*
! Touchstone port assignment:
! Touchstone port 1 = CST DES external port 1 ("")
# GHz S MA R 50
9                    0.886416958     -91.7269933
9.001                0.886077089     -91.9036428
9.002                 0.88573614      -92.080823
9.003                0.885394111     -92.2585355
9.004                0.885051001     -92.4367819
9.005                0.884706811      -92.615564
9.006                0.884361541     -92.7948834
9.007                0.884015192     -92.9747416
9.008                0.883667763     -93.1551405
9.009                0.883319255     -93.3360817
9.01                 0.882969668     -93.5175667
9.011                0.882619003     -93.6995973
9.012                 0.88226726     -93.8821751
9.013                 0.88191444     -94.0653019
9.014                0.881560543     -94.2489791
9.015                0.881205571     -94.4332086
9.016                0.880849524     -94.6179919
9.017                0.880492403     -94.8033307
9.018                0.880134208     -94.9892267
9.019                0.879774941     -95.1756815
9.02                 0.879414603     -95.3626968
9.021                0.879053195     -95.5502742
9.022                0.878690718     -95.7384155
9.023                0.878327174     -95.9271221
9.024                0.877962563     -96.1163959
9.025                0.877596887     -96.3062384
9.026                0.877230149     -96.4966512
9.027                0.876862348     -96.6876362
9.028                0.876493488     -96.8791948
9.029                0.876123569     -97.0713287
9.03                 0.875752594     -97.2640396
9.031                0.875380564     -97.4573291
9.032                0.875007481     -97.6511988
9.033                0.874633348     -97.8456504
9.034                0.874258166     -98.0406856
9.035                0.873881938     -98.2363059
9.036                0.873504667     -98.4325129
9.037                0.873126353     -98.6293084
9.038                0.872747001     -98.8266938
9.039                0.872366613     -99.0246709
9.04                  0.87198519     -99.2232413
9.041                0.871602737     -99.4224065
9.042                0.871219255     -99.6221682
9.043                0.870834748      -99.822528
9.044                0.870449219     -100.023488
9.045                0.870062671     -100.225048
9.046                0.869675107     -100.427212
9.047                 0.86928653      -100.62998
9.048                0.868896945     -100.833354
9.049                0.868506354     -101.037336
9.05                  0.86811476     -101.241927
9.051                0.867722169     -101.447129
9.052                0.867328583     -101.652943
9.053                0.866934006     -101.859371
9.054                0.866538443     -102.066415
9.055                0.866141898     -102.274075
9.056                0.865744374     -102.482354
9.057                0.865345877     -102.691254
9.058                 0.86494641     -102.900774
9.059                0.864545979     -103.110918
9.06                 0.864144587     -103.321687
9.061                 0.86374224     -103.533082
9.062                0.863338943     -103.745105
9.063                  0.8629347     -103.957757
9.064                0.862529517     -104.171039
9.065                0.862123398     -104.384954
9.066                 0.86171635     -104.599503
9.067                0.861308378     -104.814686
9.068                0.860899487     -105.030507
9.069                0.860489684     -105.246965
9.07                 0.860078973     -105.464063
9.071                 0.85966736     -105.681801
9.072                0.859254853     -105.900183
9.073                0.858841457     -106.119208
9.074                0.858427179     -106.338878
9.075                0.858012024     -106.559195
9.076                0.857595999      -106.78016
9.077                0.857179112     -107.001774
9.078                0.856761369     -107.224039
9.079                0.856342777     -107.446956
9.08                 0.855923343     -107.670527
9.081                0.855503074     -107.894753
9.082                0.855081978     -108.119634
9.083                0.854660063     -108.345174
9.084                0.854237334     -108.571372
9.085                0.853813802      -108.79823
9.086                0.853389473      -109.02575
9.087                0.852964356     -109.253932
9.088                0.852538458     -109.482778
9.089                0.852111788      -109.71229
9.09                 0.851684355     -109.942468
9.091                0.851256167     -110.173313
9.092                0.850827233     -110.404828
9.093                0.850397562     -110.637012
9.094                0.849967162     -110.869868
9.095                0.849536044     -111.103396
9.096                0.849104216     -111.337598
9.097                0.848671688     -111.572475
9.098                0.848238469     -111.808027
9.099                0.847804569     -112.044257
9.1                  0.847369999     -112.281164
9.101                0.846934768     -112.518751
9.102                0.846498886     -112.757018
9.103                0.846062365     -112.995966
9.104                0.845625214     -113.235596
9.105                0.845187444      -113.47591
9.106                0.844749066     -113.716908
9.107                0.844310091     -113.958592
9.108                 0.84387053     -114.200962
9.109                0.843430394     -114.444019
9.11                 0.842989696     -114.687764
9.111                0.842548447     -114.932198
9.112                0.842106657     -115.177322
9.113                0.841664341     -115.423137
9.114                0.841221508     -115.669644
9.115                0.840778173     -115.916844
9.116                0.840334347     -116.164736
9.117                0.839890043     -116.413323
9.118                0.839445273     -116.662605
9.119                0.839000051     -116.912582
9.12                  0.83855439     -117.163256
9.121                0.838108303     -117.414627
9.122                0.837661803     -117.666696
9.123                0.837214905     -117.919464
9.124                0.836767621      -118.17293
9.125                0.836319966     -118.427096
9.126                0.835871954     -118.681963
9.127                0.835423599     -118.937531
9.128                0.834974915       -119.1938
9.129                0.834525918     -119.450771
9.13                 0.834076622     -119.708445
9.131                0.833627042     -119.966822
9.132                0.833177193     -120.225902
9.133                 0.83272709     -120.485686
9.134                0.832276749     -120.746174
9.135                0.831826185     -121.007368
9.136                0.831375415     -121.269266
9.137                0.830924454     -121.531869
9.138                0.830473319     -121.795179
9.139                0.830022025     -122.059194
9.14                 0.829570589     -122.323916
9.141                0.829119028     -122.589344
9.142                0.828667359     -122.855478
9.143                0.828215598     -123.122319
9.144                0.827763763     -123.389868
9.145                0.827311872     -123.658123
9.146                0.826859941     -123.927085
9.147                0.826407988     -124.196755
9.148                0.825956032     -124.467131
9.149                 0.82550409     -124.738215
9.15                  0.82505218     -125.010006
9.151                0.824600321     -125.282504
9.152                0.824148531     -125.555708
9.153                 0.82369683      -125.82962
9.154                0.823245235     -126.104238
9.155                0.822793766     -126.379562
9.156                0.822342442     -126.655593
9.157                0.821891282     -126.932329
9.158                0.821440306     -127.209771
9.159                0.820989534     -127.487918
9.16                 0.820538985      -127.76677
9.161                 0.82008868     -128.046326
9.162                0.819638638     -128.326587
9.163                 0.81918888      -128.60755
9.164                0.818739427     -128.889217
9.165                0.818290299     -129.171586
9.166                0.817841516     -129.454657
9.167                0.817393101     -129.738429
9.168                0.816945073     -130.022901
9.169                0.816497455     -130.308074
9.17                 0.816050267     -130.593945
9.171                0.815603531     -130.880515
9.172                 0.81515727     -131.167782
9.173                0.814711504     -131.455745
9.174                0.814266256     -131.744405
9.175                0.813821548     -132.033759
9.176                0.813377402     -132.323807
9.177                0.812933842     -132.614547
9.178                0.812490888      -132.90598
9.179                0.812048565     -133.198103
9.18                 0.811606895     -133.490915
9.181                0.811165901     -133.784416
9.182                0.810725606     -134.078603
9.183                0.810286033     -134.373477
9.184                0.809847207     -134.669035
9.185                0.809409149     -134.965276
9.186                0.808971885     -135.262199
9.187                0.808535438     -135.559802
9.188                0.808099832     -135.858084
9.189                 0.80766509     -136.157043
9.19                 0.807231238     -136.456678
9.191                0.806798298     -136.756987
9.192                0.806366297     -137.057968
9.193                0.805935257      -137.35962
9.194                0.805505204     -137.661941
9.195                0.805076163     -137.964929
9.196                0.804648158     -138.268583
9.197                0.804221215       -138.5729
9.198                0.803795357     -138.877878
9.199                0.803370611     -139.183516
9.2                  0.802947001     -139.489811
9.201                0.802524553     -139.796762
9.202                0.802103293     -140.104366
9.203                0.801683245     -140.412621
9.204                0.801264435     -140.721525
9.205                0.800846889     -141.031075
9.206                0.800430633      -141.34127
9.207                0.800015692     -141.652106
9.208                0.799602092     -141.963582
9.209                 0.79918986     -142.275695
9.21                  0.79877902     -142.588443
9.211                  0.7983696     -142.901822
9.212                0.797961624     -143.215831
9.213                 0.79755512     -143.530466
9.214                0.797150114     -143.845725
9.215                0.796746631     -144.161606
9.216                0.796344698     -144.478104
9.217                0.795944342     -144.795219
9.218                0.795545588     -145.112945
9.219                0.795148463     -145.431282
9.22                 0.794752994     -145.750224
9.221                0.794359206     -146.069771
9.222                0.793967127     -146.389917
9.223                0.793576783     -146.710661
9.224                0.793188199     -147.031999
9.225                0.792801404     -147.353927
9.226                0.792416423     -147.676443
9.227                0.792033282     -147.999543
9.228                0.791652009     -148.323223
9.229                0.791272629      -148.64748
9.23                 0.790895169     -148.972311
9.231                0.790519656     -149.297712
9.232                0.790146116     -149.623679
9.233                0.789774575     -149.950208
9.234                 0.78940506     -150.277297
9.235                0.789037597      -150.60494
9.236                0.788672212     -150.933135
9.237                0.788308931     -151.261877
9.238                0.787947782     -151.591162
9.239                0.787588789     -151.920987
9.24                 0.787231979     -152.251347
9.241                0.786877378     -152.582238
9.242                0.786525012     -152.913656
9.243                0.786174907     -153.245597
9.244                0.785827089     -153.578057
9.245                0.785481582     -153.911031
9.246                0.785138414     -154.244514
9.247                0.784797609     -154.578504
9.248                0.784459194     -154.912994
9.249                0.784123192     -155.247981
9.25                  0.78378963     -155.583459
9.251                0.783458533     -155.919425
9.252                0.783129926     -156.255874
9.253                0.782803834     -156.592801
9.254                0.782480281       -156.9302
9.255                0.782159292     -157.268069
9.256                0.781840892       -157.6064
9.257                0.781525105     -157.945191
9.258                0.781211955     -158.284435
9.259                0.780901467     -158.624127
9.26                 0.780593664     -158.964263
9.261                 0.78028857     -159.304838
9.262                 0.77998621     -159.645846
9.263                0.779686605     -159.987282
9.264                0.779389781     -160.329141
9.265                0.779095759     -160.671418
9.266                0.778804563     -161.014106
9.267                0.778516215     -161.357202
9.268                0.778230739     -161.700699
9.269                0.777948156     -162.044592
9.27                 0.777668489     -162.388876
9.271                0.777391759     -162.733545
9.272                0.777117989     -163.078592
9.273                  0.7768472     -163.424014
9.274                0.776579413     -163.769803
9.275                0.776314649     -164.115955
9.276                 0.77605293     -164.462463
9.277                0.775794276     -164.809322
9.278                0.775538708     -165.156525
9.279                0.775286245     -165.504068
9.28                 0.775036908     -165.851943
9.281                0.774790716     -166.200145
9.282                0.774547689     -166.548669
9.283                0.774307846     -166.897507
9.284                0.774071206     -167.246654
9.285                0.773837788     -167.596104
9.286                0.773607609      -167.94585
9.287                0.773380689     -168.295886
9.288                0.773157045     -168.646207
9.289                0.772936694     -168.996806
9.29                 0.772719654     -169.347676
9.291                0.772505942     -169.698811
9.292                0.772295575     -170.050205
9.293                0.772088568     -170.401852
9.294                0.771884939     -170.753744
9.295                0.771684702     -171.105877
9.296                0.771487874     -171.458242
9.297                 0.77129447     -171.810834
9.298                0.771104504     -172.163645
9.299                0.770917991     -172.516671
9.3                  0.770734946     -172.869903
9.301                0.770555381     -173.223335
9.302                0.770379312     -173.576961
9.303                 0.77020675     -173.930773
9.304                 0.77003771     -174.284766
9.305                0.769872203     -174.638932
9.306                0.769710242     -174.993265
9.307                0.769551839     -175.347758
9.308                0.769397005     -175.702404
9.309                0.769245752     -176.057197
9.31                  0.76909809     -176.412128
9.311                0.768954031     -176.767193
9.312                0.768813583     -177.122383
9.313                0.768676758     -177.477693
9.314                0.768543564     -177.833114
9.315                 0.76841401      -178.18864
9.316                0.768288106     -178.544265
9.317                 0.76816586     -178.899981
9.318                0.768047279     -179.255781
9.319                0.767932372     -179.611659
9.32                 0.767821145     -179.967607
9.321                0.767713606      179.676382
9.322                0.767609761      179.320314
9.323                0.767509616      178.964197
9.324                0.767413177      178.608038
9.325                 0.76732045      178.251843
9.326                0.767231439      177.895619
9.327                0.767146149      177.539375
9.328                0.767064585      177.183116
9.329                0.766986751      176.826849
9.33                 0.766912649      176.470583
9.331                0.766842283      176.114323
9.332                0.766775656      175.758077
9.333                 0.76671277      175.401852
9.334                0.766653628      175.045654
9.335                 0.76659823      174.689492
9.336                0.766546579      174.333371
9.337                0.766498674      173.977299
9.338                0.766454517      173.621283
9.339                0.766414108      173.265331
9.34                 0.766377445      172.909448
9.341                 0.76634453      172.553642
9.342                 0.76631536       172.19792
9.343                0.766289934      171.842288
9.344                0.766268251      171.486755
9.345                0.766250308      171.131326
9.346                0.766236103      170.776009
9.347                0.766225633      170.420811
9.348                0.766218894      170.065738
9.349                0.766215883      169.710798
9.35                 0.766216596      169.355997
9.351                0.766221028      169.001343
9.352                0.766229175      168.646841
9.353                0.766241032      168.292499
9.354                0.766256593      167.938324
9.355                0.766275852      167.584323
9.356                0.766298803      167.230501
9.357                0.766325439      166.876867
9.358                0.766355754      166.523426
9.359                 0.76638974      166.170186
9.36                 0.766427389      165.817153
9.361                0.766468694      165.464334
9.362                0.766513647      165.111735
9.363                0.766562237      164.759363
9.364                0.766614458      164.407224
9.365                0.766670298      164.055326
9.366                0.766729749      163.703674
9.367                  0.7667928      163.352276
9.368                0.766859441      163.001137
9.369                0.766929661      162.650264
9.37                  0.76700345      162.299663
9.371                0.767080795      161.949341
9.372                0.767161686      161.599305
9.373                 0.76724611      161.249559
9.374                0.767334054      160.900112
9.375                0.767425507      160.550968
9.376                0.767520456      160.202135
9.377                0.767618886      159.853617
9.378                0.767720785      159.505422
9.379                0.767826139      159.157556
9.38                 0.767934933      158.810024
9.381                0.768047153      158.462832
9.382                0.768162785      158.115987
9.383                0.768281814      157.769495
9.384                0.768404224       157.42336
9.385                0.768529999       157.07759
9.386                0.768659125       156.73219
9.387                0.768791584      156.387166
9.388                0.768927361      156.042523
9.389                0.769066439      155.698267
9.39                 0.769208801      155.354404
9.391                 0.76935443      155.010939
9.392                0.769503308      154.667879
9.393                0.769655419      154.325228
9.394                0.769810744      153.982991
9.395                0.769969265      153.641175
9.396                0.770130964      153.299785
9.397                0.770295822      152.958826
9.398                0.770463821      152.618303
9.399                0.770634942      152.278221
9.4                  0.770809166      151.938586
9.401                0.770986472      151.599404
9.402                0.771166843      151.260678
9.403                0.771350257      150.922413
9.404                0.771536695      150.584616
9.405                0.771726136      150.247291
9.406                0.771918562      149.910443
9.407                 0.77211395      149.574076
9.408                 0.77231228      149.238195
9.409                0.772513532      148.902806
9.41                 0.772717684      148.567913
9.411                0.772924715       148.23352
9.412                0.773134603      147.899632
9.413                0.773347328      147.566254
9.414                0.773562868       147.23339
9.415                  0.7737812      146.901044
9.416                0.774002304      146.569221
9.417                0.774226155      146.237926
9.418                0.774452734      145.907162
9.419                0.774682017      145.576934
9.42                 0.774913981      145.247246
9.421                0.775148605      144.918102
9.422                0.775385865      144.589506
9.423                0.775625738      144.261462
9.424                0.775868203      143.933974
9.425                0.776113235      143.607046
9.426                0.776360812      143.280682
9.427                 0.77661091      142.954886
9.428                0.776863507      142.629661
9.429                0.777118578      142.305012
9.43                 0.777376101      141.980941
9.431                0.777636051      141.657452
9.432                0.777898406       141.33455
9.433                0.778163141      141.012237
9.434                0.778430233      140.690516
9.435                0.778699659      140.369392
9.436                0.778971393      140.048868
9.437                0.779245413      139.728946
9.438                0.779521695      139.409631
9.439                0.779800214      139.090925
9.44                 0.780080946      138.772831
9.441                0.780363868      138.455352
9.442                0.780648956      138.138492
9.443                0.780936185      137.822254
9.444                0.781225531       137.50664
9.445                 0.78151697      137.191653
9.446                0.781810478      136.877296
9.447                0.782106031      136.563571
9.448                0.782403605      136.250483
9.449                0.782703175      135.938032
9.45                 0.783004717      135.626222
9.451                0.783308208      135.315055
9.452                0.783613622      135.004535
9.453                0.783920937      134.694662
9.454                0.784230127       134.38544
9.455                0.784541169      134.076871
9.456                0.784854039      133.768957
9.457                0.785168712      133.461701
9.458                0.785485165      133.155104
9.459                0.785803373       132.84917
9.46                 0.786123313      132.543899
9.461                 0.78644496      132.239295
9.462                0.786768292      131.935358
9.463                0.787093283      131.632091
9.464                 0.78741991      131.329497
9.465                 0.78774815      131.027576
9.466                0.788077978      130.726331
9.467                0.788409372      130.425763
9.468                0.788742307      130.125874
9.469                 0.78907676      129.826666
9.47                 0.789412707       129.52814
9.471                0.789750126      129.230298
9.472                0.790088993      128.933141
9.473                0.790429284      128.636672
9.474                0.790770977      128.340891
9.475                0.791114049        128.0458
9.476                0.791458475        127.7514
9.477                0.791804234      127.457692
9.478                0.792151303      127.164678
9.479                0.792499659      126.872359
9.48                 0.792849279      126.580736
9.481                 0.79320014       126.28981
9.482                0.793552221      125.999583
9.483                0.793905499      125.710055
9.484                0.794259951      125.421228
9.485                0.794615555      125.133102
9.486                 0.79497229      124.845678
9.487                0.795330133      124.558957
9.488                0.795689062       124.27294
9.489                0.796049056      123.987629
9.49                 0.796410093      123.703022
9.491                0.796772151      123.419122
9.492                0.797135209      123.135929
9.493                0.797499246      122.853444
9.494                0.797864241      122.571667
9.495                0.798230171      122.290599
9.496                0.798597017       122.01024
9.497                0.798964758      121.730591
9.498                0.799333372      121.451652
9.499                 0.79970284      121.173423
9.5                   0.80007314      120.895906
9.501                0.800444253      120.619101
9.502                0.800816157      120.343007
9.503                0.801188834      120.067625
9.504                0.801562262      119.792955
9.505                0.801936423      119.518998
9.506                0.802311296      119.245753
9.507                0.802686862      118.973222
9.508                0.803063102      118.701403
9.509                0.803439995      118.430297
9.51                 0.803817524      118.159904
9.511                0.804195668      117.890224
9.512                0.804574409      117.621256
9.513                0.804953728      117.353002
9.514                0.805333607      117.085461
9.515                0.805714027      116.818632
9.516                0.806094969      116.552516
9.517                0.806476416      116.287113
9.518                0.806858349      116.022421
9.519                 0.80724075      115.758441
9.52                 0.807623603      115.495173
9.521                0.808006888      115.232617
9.522                0.808390588      114.970771
9.523                0.808774686      114.709636
9.524                0.809159166      114.449212
9.525                0.809544009      114.189497
9.526                0.809929199      113.930492
9.527                0.810314718      113.672196
9.528                0.810700551      113.414608
9.529                0.811086681      113.157728
9.53                 0.811473092      112.901556
9.531                0.811859766      112.646091
9.532                0.812246689      112.391332
9.533                0.812633844      112.137278
9.534                0.813021216       111.88393
9.535                0.813408788      111.631286
9.536                0.813796545      111.379346
9.537                0.814184473      111.128109
9.538                0.814572555      110.877574
9.539                0.814960777      110.627741
9.54                 0.815349124      110.378608
9.541                0.815737581      110.130175
9.542                0.816126133      109.882442
9.543                0.816514766      109.635407
9.544                0.816903466      109.389069
9.545                0.817292218      109.143428
9.546                0.817681009      108.898482
9.547                0.818069824      108.654231
9.548                 0.81845865      108.410674
9.549                0.818847473       108.16781
9.55                 0.819236279      107.925638
9.551                0.819625056      107.684156
9.552                 0.82001379      107.443365
9.553                0.820402467      107.203262
9.554                0.820791077      106.963847
9.555                0.821179604      106.725119
9.556                0.821568037      106.487076
9.557                0.821956364      106.249718
9.558                0.822344571      106.013043
9.559                0.822732648      105.777051
9.56                 0.823120581      105.541739
9.561                0.823508359      105.307108
9.562                0.823895969      105.073155
9.563                0.824283402       104.83988
9.564                0.824670644      104.607282
9.565                0.825057684      104.375358
9.566                0.825444512      104.144109
9.567                0.825831116      103.913532
9.568                0.826217485      103.683626
9.569                0.826603608       103.45439
9.57                 0.826989475      103.225824
9.571                0.827375075      102.997925
9.572                0.827760398      102.770692
9.573                0.828145433      102.544123
9.574                 0.82853017      102.318219
9.575                0.828914599      102.092976
9.576                 0.82929871      101.868395
9.577                0.829682494      101.644472
9.578                0.830065941      101.421208
9.579                0.830449041        101.1986
9.58                 0.830831784      100.976648
9.581                0.831214162      100.755349
9.582                0.831596165      100.534703
9.583                0.831977785      100.314708
9.584                0.832359012      100.095362
9.585                0.832739838      99.8766637
9.586                0.833120254      99.6586123
9.587                0.833500251       99.441206
9.588                0.833879821      99.2244432
9.589                0.834258956      99.0083225
9.59                 0.834637648      98.7928423
9.591                0.835015888      98.5780012
9.592                0.835393668      98.3637977
9.593                0.835770981      98.1502301
9.594                0.836147819       97.937297
9.595                0.836524175      97.7249968
9.596                 0.83690004      97.5133279
9.597                0.837275408      97.3022889
9.598                0.837650271      97.0918781
9.599                0.838024622       96.882094
9.6                  0.838398454       96.672935
9.601                0.838771761      96.4643995