! TOUCHSTONE file generated by CST DESIGN STUDIO
! Date and time: Tue Feb  4 12:31:12 2025
! Project name: C:\Work\MatlabApps\UnitCellOptimizationMatlab\CST\unitcell.cst
! Tree item: Tasks\Sweep1\SPara1\S-Parameters
! Header version: 2024
! Port assignment regex: !\s*Touchstone port\s*([0-9]+)\s*=\s*(CST MWS port|CST DES external port|CST DES block port)\s*(.+)\s* \(\"(.*)\"\)(\s*mode\s*([0-9]+))?.*
! Touchstone port assignment:
! Touchstone port 1 = CST DES external port 1 ("")
# GHz S MA R 50
9                    0.989527312     -72.8519968
9.001                0.989503496     -72.9588528
9.002                0.989479609     -73.0659658
9.003                 0.98945565     -73.1733367
9.004                0.989431619     -73.2809662
9.005                0.989407516      -73.388855
9.006                 0.98938334      -73.497004
9.007                0.989359092     -73.6054139
9.008                0.989334772     -73.7140855
9.009                0.989310379     -73.8230195
9.01                 0.989285913     -73.9322168
9.011                0.989261374     -74.0416781
9.012                0.989236761     -74.1514043
9.013                0.989212075      -74.261396
9.014                0.989187315     -74.3716542
9.015                0.989162482     -74.4821795
9.016                0.989137575     -74.5929728
9.017                0.989112593     -74.7040349
9.018                0.989087537     -74.8153665
9.019                0.989062407     -74.9269685
9.02                 0.989037202     -75.0388417
9.021                0.989011922     -75.1509868
9.022                0.988986567     -75.2634047
9.023                0.988961137     -75.3760962
9.024                0.988935631     -75.4890621
9.025                 0.98891005     -75.6023031
9.026                0.988884394     -75.7158202
9.027                0.988858662     -75.8296141
9.028                0.988832853     -75.9436857
9.029                0.988806969     -76.0580357
9.03                 0.988781008      -76.172665
9.031                 0.98875497     -76.2875743
9.032                0.988728856     -76.4027646
9.033                0.988702665     -76.5182367
9.034                0.988676398     -76.6339913
9.035                0.988650053     -76.7500294
9.036                 0.98862363     -76.8663516
9.037                0.988597131      -76.982959
9.038                0.988570553     -77.0998522
9.039                0.988543898     -77.2170322
9.04                 0.988517165     -77.3344998
9.041                0.988490354     -77.4522558
9.042                0.988463465      -77.570301
9.043                0.988436497     -77.6886364
9.044                0.988409451     -77.8072627
9.045                0.988382326     -77.9261808
9.046                0.988355122     -78.0453915
9.047                0.988327839     -78.1648958
9.048                0.988300477     -78.2846944
9.049                0.988273035     -78.4047883
9.05                 0.988245515     -78.5251782
9.051                0.988217914      -78.645865
9.052                0.988190234     -78.7668496
9.053                0.988162474     -78.8881329
9.054                0.988134634     -79.0097156
9.055                0.988106714     -79.1315988
9.056                0.988078713     -79.2537832
9.057                0.988050632     -79.3762697
9.058                 0.98802247     -79.4990591
9.059                0.987994228     -79.6221525
9.06                 0.987965905     -79.7455506
9.061                  0.9879375     -79.8692542
9.062                0.987909015     -79.9932644
9.063                0.987880448     -80.1175819
9.064                  0.9878518     -80.2422077
9.065                 0.98782307     -80.3671426
9.066                0.987794259     -80.4923875
9.067                0.987765366     -80.6179432
9.068                0.987736391     -80.7438108
9.069                0.987707334      -80.869991
9.07                 0.987678194     -80.9964848
9.071                0.987648973     -81.1232931
9.072                0.987619669     -81.2504166
9.073                0.987590282     -81.3778564
9.074                0.987560813     -81.5056134
9.075                0.987531261     -81.6336884
9.076                0.987501626     -81.7620823
9.077                0.987471908      -81.890796
9.078                0.987442106     -82.0198304
9.079                0.987412222     -82.1491865
9.08                 0.987382254     -82.2788652
9.081                0.987352203     -82.4088672
9.082                0.987322069     -82.5391936
9.083                 0.98729185     -82.6698453
9.084                0.987261548     -82.8008232
9.085                0.987231162     -82.9321281
9.086                0.987200692      -83.063761
9.087                0.987170138     -83.1957228
9.088                  0.9871395     -83.3280145
9.089                0.987108777     -83.4606368
9.09                 0.987077971     -83.5935908
9.091                0.987047079     -83.7268774
9.092                0.987016104     -83.8604975
9.093                0.986985043      -83.994452
9.094                0.986953898     -84.1287419
9.095                0.986922669     -84.2633679
9.096                0.986891354     -84.3983312
9.097                0.986859955     -84.5336326
9.098                 0.98682847      -84.669273
9.099                0.986796901     -84.8052534
9.1                  0.986765246     -84.9415746
9.101                0.986733506     -85.0782377
9.102                0.986701681     -85.2152435
9.103                 0.98666977      -85.352593
9.104                0.986637775     -85.4902871
9.105                0.986605693     -85.6283267
9.106                0.986573526     -85.7667128
9.107                0.986541274     -85.9054463
9.108                0.986508936     -86.0445282
9.109                0.986476513     -86.1839594
9.11                 0.986444003     -86.3237407
9.111                0.986411408     -86.4638732
9.112                0.986378728     -86.6043579
9.113                0.986345961     -86.7451955
9.114                0.986313108     -86.8863871
9.115                 0.98628017     -87.0279336
9.116                0.986247146      -87.169836
9.117                0.986214036     -87.3120952
9.118                 0.98618084     -87.4547121
9.119                0.986147558     -87.5976876
9.12                 0.986114189     -87.7410228
9.121                0.986080735     -87.8847186
9.122                0.986047195     -88.0287758
9.123                0.986013569     -88.1731956
9.124                0.985979857     -88.3179787
9.125                0.985946059     -88.4631261
9.126                0.985912174     -88.6086388
9.127                0.985878204     -88.7545177
9.128                0.985844148     -88.9007639
9.129                0.985810006     -89.0473781
9.13                 0.985775777     -89.1943614
9.131                0.985741463     -89.3417147
9.132                0.985707063     -89.4894389
9.133                0.985672577      -89.637535
9.134                0.985638005      -89.786004
9.135                0.985603347     -89.9348468
9.136                0.985568603     -90.0840643
9.137                0.985533774     -90.2336575
9.138                0.985498859     -90.3836273
9.139                0.985463858     -90.5339747
9.14                 0.985428771     -90.6847005
9.141                0.985393599     -90.8358059
9.142                0.985358341     -90.9872916
9.143                0.985322998     -91.1391587
9.144                 0.98528757     -91.2914081
9.145                0.985252056     -91.4440407
9.146                0.985216457     -91.5970574
9.147                0.985180773     -91.7504593
9.148                0.985145003     -91.9042472
9.149                0.985109149     -92.0584222
9.15                  0.98507321      -92.212985
9.151                0.985037186     -92.3679368
9.152                0.985001077     -92.5232783
9.153                0.984964883     -92.6790106
9.154                0.984928606     -92.8351346
9.155                0.984892243     -92.9916512
9.156                0.984855797     -93.1485613
9.157                0.984819266     -93.3058659
9.158                0.984782651      -93.463566
9.159                0.984745953     -93.6216624
9.16                 0.984709171     -93.7801561
9.161                0.984672305      -93.939048
9.162                0.984635355      -94.098339
9.163                0.984598323     -94.2580301
9.164                0.984561207     -94.4181222
9.165                0.984524008     -94.5786162
9.166                0.984486727      -94.739513
9.167                0.984449362     -94.9008136
9.168                0.984411916     -95.0625189
9.169                0.984374387     -95.2246297
9.17                 0.984336776     -95.3871471
9.171                0.984299083     -95.5500719
9.172                0.984261308      -95.713405
9.173                0.984223452     -95.8771474
9.174                0.984185515     -96.0412999
9.175                0.984147496     -96.2058635
9.176                0.984109397      -96.370839
9.177                0.984071217     -96.5362275
9.178                0.984032957     -96.7020296
9.179                0.983994616     -96.8682465
9.18                 0.983956196     -97.0348789
9.181                0.983917696     -97.2019278
9.182                0.983879117      -97.369394
9.183                0.983840458     -97.5372784
9.184                0.983801721      -97.705582
9.185                0.983762905     -97.8743055
9.186                 0.98372401       -98.04345
9.187                0.983685038     -98.2130162
9.188                0.983645988      -98.383005
9.189                0.983606861     -98.5534174
9.19                 0.983567656     -98.7242541
9.191                0.983528375     -98.8955161
9.192                0.983489017     -99.0672042
9.193                0.983449583     -99.2393192
9.194                0.983410073     -99.4118621
9.195                0.983370487     -99.5848336
9.196                0.983330827     -99.7582347
9.197                0.983291092     -99.9320662
9.198                0.983251282     -100.106329
9.199                0.983211398     -100.281024
9.2                  0.983171441     -100.456151
9.201                 0.98313141     -100.631713
9.202                0.983091306     -100.807708
9.203                 0.98305113      -100.98414
9.204                0.983010882     -101.161007
9.205                0.982970561     -101.338312
9.206                 0.98293017     -101.516054
9.207                0.982889708     -101.694235
9.208                0.982849175     -101.872855
9.209                0.982808572     -102.051916
9.21                   0.9827679     -102.231418
9.211                0.982727159     -102.411361
9.212                0.982686349     -102.591747
9.213                 0.98264547     -102.772577
9.214                0.982604525     -102.953851
9.215                0.982563511     -103.135569
9.216                0.982522432     -103.317734
9.217                0.982481286     -103.500344
9.218                0.982440074     -103.683402
9.219                0.982398797     -103.866909
9.22                 0.982357456     -104.050863
9.221                 0.98231605     -104.235267
9.222                0.982274581     -104.420122
9.223                0.982233048     -104.605427
9.224                0.982191454     -104.791184
9.225                0.982149797     -104.977394
9.226                0.982108079     -105.164056
9.227                  0.9820663     -105.351172
9.228                0.982024461     -105.538743
9.229                0.981982563     -105.726769
9.23                 0.981940606     -105.915251
9.231                 0.98189859     -106.104189
9.232                0.981856517     -106.293585
9.233                0.981814386     -106.483439
9.234                  0.9817722     -106.673751
9.235                0.981729957     -106.864522
9.236                 0.98168766     -107.055753
9.237                0.981645308     -107.247445
9.238                0.981602902     -107.439598
9.239                0.981560443     -107.632212
9.24                 0.981517932     -107.825289
9.241                 0.98147537     -108.018829
9.242                0.981432756     -108.212833
9.243                0.981390093     -108.407301
9.244                 0.98134738     -108.602234
9.245                0.981304618     -108.797632
9.246                0.981261808     -108.993496
9.247                0.981218951     -109.189826
9.248                0.981176048     -109.386624
9.249                  0.9811331     -109.583889
9.25                 0.981090106     -109.781623
9.251                0.981047069     -109.979825
9.252                0.981003988     -110.178496
9.253                0.980960865     -110.377638
9.254                0.980917701     -110.577249
9.255                0.980874496     -110.777331
9.256                0.980831251     -110.977885
9.257                0.980787967      -111.17891
9.258                0.980744645     -111.380408
9.259                0.980701287     -111.582378
9.26                 0.980657891     -111.784821
9.261                0.980614461     -111.987738
9.262                0.980570996     -112.191129
9.263                0.980527498     -112.394995
9.264                0.980483967     -112.599335
9.265                0.980440405     -112.804151
9.266                0.980396811     -113.009442
9.267                0.980353189     -113.215209
9.268                0.980309537     -113.421453
9.269                0.980265858     -113.628173
9.27                 0.980222153     -113.835371
9.271                0.980178421     -114.043046
9.272                0.980134665     -114.251199
9.273                0.980090885      -114.45983
9.274                0.980047083      -114.66894
9.275                 0.98000326     -114.878528
9.276                0.979959416     -115.088596
9.277                0.979915552     -115.299142
9.278                 0.97987167     -115.510169
9.279                0.979827772     -115.721675
9.28                 0.979783857     -115.933661
9.281                0.979739927     -116.146128
9.282                0.979695983     -116.359075
9.283                0.979652027     -116.572503
9.284                 0.97960806     -116.786412
9.285                0.979564082     -117.000802
9.286                0.979520095     -117.215673
9.287                  0.9794761     -117.431026
9.288                0.979432098     -117.646861
9.289                 0.97938809     -117.863177
9.29                 0.979344079     -118.079975
9.291                0.979300064     -118.297255
9.292                0.979256048     -118.515017
9.293                0.979212031     -118.733261
9.294                0.979168014     -118.951988
9.295                   0.979124     -119.171196
9.296                0.979079989     -119.390887
9.297                0.979035982     -119.611061
9.298                0.978991982     -119.831716
9.299                0.978947988     -120.052854
9.3                  0.978904003     -120.274475
9.301                0.978860028     -120.496577
9.302                0.978816065     -120.719162
9.303                0.978772113     -120.942229
9.304                0.978728176     -121.165779
9.305                0.978684254      -121.38981
9.306                0.978640349     -121.614323
9.307                0.978596463     -121.839318
9.308                0.978552595     -122.064795
9.309                0.978508749     -122.290753
9.31                 0.978464925     -122.517193
9.311                0.978421126     -122.744113
9.312                0.978377351     -122.971515
9.313                0.978333604     -123.199398
9.314                0.978289885     -123.427761
9.315                0.978246196     -123.656604
9.316                0.978202538     -123.885928
9.317                0.978158913     -124.115731
9.318                0.978115323     -124.346013
9.319                0.978071768     -124.576775
9.32                 0.978028251     -124.808016
9.321                0.977984773     -125.039735
9.322                0.977941336     -125.271933
9.323                0.977897941     -125.504608
9.324                 0.97785459      -125.73776
9.325                0.977811285      -125.97139
9.326                0.977768026     -126.205496
9.327                0.977724816     -126.440078
9.328                0.977681657     -126.675136
9.329                0.977638549     -126.910668
9.33                 0.977595495     -127.146676
9.331                0.977552497     -127.383158
9.332                0.977509555     -127.620113
9.333                0.977466672     -127.857542
9.334                 0.97742385     -128.095442
9.335                0.977381089     -128.333815
9.336                0.977338392     -128.572659
9.337                0.977295761     -128.811974
9.338                0.977253197     -129.051759
9.339                0.977210702     -129.292013
9.34                 0.977168278     -129.532736
9.341                0.977125926     -129.773927
9.342                0.977083648     -130.015585
9.343                0.977041447     -130.257709
9.344                0.976999323       -130.5003
9.345                0.976957279     -130.743355
9.346                0.976915316     -130.986874
9.347                0.976873437     -131.230857
9.348                0.976831643     -131.475303
9.349                0.976789935      -131.72021
9.35                 0.976748316     -131.965578
9.351                0.976706788     -132.211406
9.352                0.976665353     -132.457693
9.353                0.976624011     -132.704437
9.354                0.976582766     -132.951639
9.355                0.976541619     -133.199298
9.356                0.976500571     -133.447411
9.357                0.976459626     -133.695978
9.358                0.976418784     -133.944999
9.359                0.976378048     -134.194471
9.36                  0.97633742     -134.444394
9.361                0.976296901     -134.694768
9.362                0.976256493      -134.94559
9.363                0.976216199     -135.196859
9.364                0.976176019     -135.448575
9.365                0.976135958     -135.700736
9.366                0.976096015     -135.953341
9.367                0.976056193     -136.206389
9.368                0.976016495     -136.459879
9.369                0.975976921     -136.713808
9.37                 0.975937475     -136.968177
9.371                0.975898157     -137.222983
9.372                0.975858971     -137.478226
9.373                0.975819917     -137.733904
9.374                0.975780999     -137.990015
9.375                0.975742217     -138.246558
9.376                0.975703575     -138.503533
9.377                0.975665073     -138.760936
9.378                0.975626715     -139.018767
9.379                0.975588501     -139.277025
9.38                 0.975550434     -139.535708
9.381                0.975512517     -139.794814
9.382                 0.97547475     -140.054341
9.383                0.975437137     -140.314289
9.384                0.975399678     -140.574656
9.385                0.975362377     -140.835439
9.386                0.975325235     -141.096638
9.387                0.975288254      -141.35825
9.388                0.975251437     -141.620275
9.389                0.975214785      -141.88271
9.39                   0.9751783     -142.145553
9.391                0.975141984     -142.408803
9.392                 0.97510584     -142.672458
9.393                0.975069869     -142.936516
9.394                0.975034074     -143.200976
9.395                0.974998456     -143.465835
9.396                0.974963018     -143.731091
9.397                0.974927761     -143.996744
9.398                0.974892688      -144.26279
9.399                0.974857801     -144.529229
9.4                  0.974823102     -144.796057
9.401                0.974788592     -145.063273
9.402                0.974754274     -145.330876
9.403                 0.97472015     -145.598862
9.404                0.974686222      -145.86723
9.405                0.974652492     -146.135978
9.406                0.974618961     -146.405104
9.407                0.974585633     -146.674605
9.408                0.974552509      -146.94448
9.409                 0.97451959     -147.214726
9.41                  0.97448688     -147.485342
9.411                 0.97445438     -147.756324
9.412                0.974422091     -148.027671
9.413                0.974390017     -148.299381
9.414                0.974358159     -148.571451
9.415                0.974326519     -148.843878
9.416                0.974295099     -149.116662
9.417                0.974263901     -149.389798
9.418                0.974232926     -149.663286
9.419                0.974202178     -149.937122
9.42                 0.974171658     -150.211304
9.421                0.974141368     -150.485829
9.422                0.974111309     -150.760696
9.423                0.974081484     -151.035902
9.424                0.974051895     -151.311444
9.425                0.974022544      -151.58732
9.426                0.973993432     -151.863528
9.427                0.973964562     -152.140063
9.428                0.973935935     -152.416925
9.429                0.973907553     -152.694111
9.43                 0.973879419     -152.971617
9.431                0.973851534     -153.249442
9.432                0.973823899     -153.527582
9.433                0.973796517     -153.806036
9.434                 0.97376939     -154.084799
9.435                 0.97374252      -154.36387
9.436                0.973715907     -154.643246
9.437                0.973689555     -154.922924
9.438                0.973663465     -155.202901
9.439                0.973637638     -155.483174
9.44                 0.973612077     -155.763741
9.441                0.973586784     -156.044599
9.442                0.973561759     -156.325745
9.443                0.973537005     -156.607175
9.444                0.973512523     -156.888888
9.445                0.973488316      -157.17088
9.446                0.973464385     -157.453149
9.447                0.973440731      -157.73569
9.448                0.973417356     -158.018502
9.449                0.973394263     -158.301581
9.45                 0.973371452     -158.584925
9.451                0.973348925      -158.86853
9.452                0.973326684     -159.152393
9.453                0.973304731     -159.436511
9.454                0.973283067     -159.720881
9.455                0.973261693       -160.0055
9.456                0.973240612     -160.290365
9.457                0.973219824     -160.575473
9.458                0.973199331      -160.86082
9.459                0.973179135     -161.146404
9.46                 0.973159238     -161.432221
9.461                 0.97313964     -161.718268
9.462                0.973120343     -162.004541
9.463                0.973101349     -162.291038
9.464                0.973082659     -162.577756
9.465                0.973064274      -162.86469
9.466                0.973046196     -163.151838
9.467                0.973028426     -163.439196
9.468                0.973010966     -163.726762
9.469                0.972993816     -164.014531
9.47                 0.972976979       -164.3025
9.471                0.972960454     -164.590667
9.472                0.972944245     -164.879027
9.473                0.972928351     -165.167577
9.474                0.972912775     -165.456314
9.475                0.972897517     -165.745235
9.476                0.972882578     -166.034335
9.477                 0.97286796     -166.323612
9.478                0.972853664     -166.613062
9.479                 0.97283969     -166.902682
9.48                 0.972826041     -167.192468
9.481                0.972812716     -167.482416
9.482                0.972799718     -167.772523
9.483                0.972787047     -168.062786
9.484                0.972774704     -168.353201
9.485                 0.97276269     -168.643765
9.486                0.972751006     -168.934473
9.487                0.972739653     -169.225323
9.488                0.972728632      -169.51631
9.489                0.972717944     -169.807432
9.49                 0.972707589     -170.098684
9.491                0.972697569     -170.390063
9.492                0.972687884     -170.681566
9.493                0.972678536     -170.973188
9.494                0.972669524     -171.264926
9.495                 0.97266085     -171.556777
9.496                0.972652514     -171.848737
9.497                0.972644517     -172.140801
9.498                 0.97263686     -172.432968
9.499                0.972629543     -172.725231
9.5                  0.972622567     -173.017589
9.501                0.972615932     -173.310038
9.502                 0.97260964     -173.602573
9.503                 0.97260369      -173.89519
9.504                0.972598084     -174.187888
9.505                0.972592821      -174.48066
9.506                0.972587902     -174.773505
9.507                0.972583328     -175.066417
9.508                0.972579098     -175.359394
9.509                0.972575214     -175.652432
9.51                 0.972571676     -175.945526
9.511                0.972568484     -176.238673
9.512                0.972565638      -176.53187
9.513                0.972563138     -176.825112
9.514                0.972560986     -177.118396
9.515                 0.97255918     -177.411719
9.516                0.972557722     -177.705075
9.517                0.972556611     -177.998462
9.518                0.972555848     -178.291876
9.519                0.972555433     -178.585312
9.52                 0.972555366     -178.878768
9.521                0.972555646     -179.172239
9.522                0.972556274     -179.465722
9.523                0.972557251     -179.759212
9.524                0.972558575      179.947293
9.525                0.972560247      179.653798
9.526                0.972562267      179.360307
9.527                0.972564634      179.066823
9.528                 0.97256735       178.77335
9.529                0.972570412      178.479892
9.53                 0.972573822      178.186453
9.531                 0.97257758      177.893036
9.532                0.972581684      177.599645
9.533                0.972586134      177.306284
9.534                0.972590931      177.012957
9.535                0.972596074      176.719668
9.536                0.972601563      176.426419
9.537                0.972607397      176.133216
9.538                0.972613576      175.840062
9.539                  0.9726201       175.54696
9.54                 0.972626967      175.253915
9.541                0.972634179      174.960929
9.542                0.972641733      174.668008
9.543                 0.97264963      174.375154
9.544                0.972657869      174.082371
9.545                 0.97266645      173.789664
9.546                0.972675372      173.497035
9.547                0.972684634      173.204488
9.548                0.972694236      172.912028
9.549                0.972704176      172.619658
9.55                 0.972714455      172.327381
9.551                0.972725072      172.035201
9.552                0.972736025      171.743122
9.553                0.972747315      171.451148
9.554                 0.97275894      171.159283
9.555                0.972770899      170.867529
9.556                0.972783192      170.575891
9.557                0.972795818      170.284371
9.558                0.972808776      169.992975
9.559                0.972822064      169.701706
9.56                 0.972835683      169.410566
9.561                0.972849631       169.11956
9.562                0.972863907      168.828691
9.563                 0.97287851      168.537964
9.564                0.972893439       168.24738
9.565                0.972908693      167.956945
9.566                0.972924271      167.666661
9.567                0.972940172      167.376532
9.568                0.972956394      167.086562
9.569                0.972972937      166.796754
9.57                   0.9729898      166.507112
9.571                 0.97300698      166.217638
9.572                0.973024478      165.928338
9.573                0.973042292      165.639213
9.574                 0.97306042      165.350268
9.575                0.973078861      165.061505
9.576                0.973097615       164.77293
9.577                0.973116679      164.484543
9.578                0.973136052       164.19635
9.579                0.973155733      163.908354
9.58                 0.973175721      163.620558
9.581                0.973196015      163.332964
9.582                0.973216612      163.045578
9.583                0.973237511      162.758401
9.584                0.973258712      162.471437
9.585                0.973280212      162.184691
9.586                 0.97330201      161.898163
9.587                0.973324104      161.611859
9.588                0.973346494      161.325781
9.589                0.973369177      161.039933
9.59                 0.973392152      160.754318
9.591                0.973415417      160.468938
9.592                0.973438971      160.183798
9.593                0.973462812      159.898899
9.594                0.973486939      159.614247
9.595                 0.97351135      159.329842
9.596                0.973536043       159.04569
9.597                0.973561017      158.761792
9.598                0.973586269      158.478152
9.599                0.973611799      158.194773
9.6                  0.973637604      157.911657
9.601                0.973663683      157.628809