! TOUCHSTONE file generated by CST DESIGN STUDIO
! Date and time: Tue Feb  4 13:25:54 2025
! Project name: C:\Work\MatlabApps\UnitCellOptimizationMatlab\CST\unitcell.cst
! Tree item: Tasks\Sweep1\SPara1\S-Parameters
! Header version: 2024
! Port assignment regex: !\s*Touchstone port\s*([0-9]+)\s*=\s*(CST MWS port|CST DES external port|CST DES block port)\s*(.+)\s* \(\"(.*)\"\)(\s*mode\s*([0-9]+))?.*
! Touchstone port assignment:
! Touchstone port 1 = CST DES external port 1 ("")
# GHz S MA R 50
9                      0.9585106     -50.8589005
9.001                0.958455208      -50.923136
9.002                0.958399734     -50.9875192
9.003                0.958344178     -51.0520508
9.004                0.958288537     -51.1167312
9.005                0.958232811     -51.1815609
9.006                0.958176998     -51.2465403
9.007                0.958121098     -51.3116701
9.008                0.958065109     -51.3769506
9.009                 0.95800903     -51.4423823
9.01                 0.957952861     -51.5079658
9.011                0.957896598     -51.5737016
9.012                0.957840242     -51.6395902
9.013                0.957783792      -51.705632
9.014                0.957727245     -51.7718276
9.015                0.957670602     -51.8381774
9.016                 0.95761386     -51.9046821
9.017                0.957557018     -51.9713421
9.018                0.957500076     -52.0381578
9.019                0.957443032     -52.1051299
9.02                 0.957385884     -52.1722588
9.021                0.957328632     -52.2395451
9.022                0.957271275     -52.3069892
9.023                 0.95721381     -52.3745918
9.024                0.957156237     -52.4423532
9.025                0.957098555     -52.5102741
9.026                0.957040762      -52.578355
9.027                0.956982856     -52.6465963
9.028                0.956924838     -52.7149987
9.029                0.956866705     -52.7835626
9.03                 0.956808456     -52.8522886
9.031                 0.95675009     -52.9211772
9.032                0.956691606      -52.990229
9.033                0.956633002     -53.0594444
9.034                0.956574277     -53.1288241
9.035                 0.95651543     -53.1983686
9.036                0.956456459     -53.2680783
9.037                0.956397363      -53.337954
9.038                0.956338141      -53.407996
9.039                0.956278792      -53.478205
9.04                 0.956219313     -53.5485815
9.041                0.956159704     -53.6191261
9.042                0.956099964     -53.6898393
9.043                0.956040091     -53.7607216
9.044                0.955980084     -53.8317737
9.045                0.955919941      -53.902996
9.046                0.955859661     -53.9743893
9.047                0.955799242     -54.0459539
9.048                0.955738684     -54.1176905
9.049                0.955677985     -54.1895996
9.05                 0.955617144     -54.2616819
9.051                0.955556159     -54.3339378
9.052                0.955495028     -54.4063681
9.053                0.955433751     -54.4789731
9.054                0.955372326     -54.5517536
9.055                0.955310752       -54.62471
9.056                0.955249027     -54.6978431
9.057                 0.95518715     -54.7711533
9.058                0.955125119     -54.8446412
9.059                0.955062933     -54.9183075
9.06                 0.955000591     -54.9921527
9.061                 0.95493809     -55.0661774
9.062                0.954875431     -55.1403822
9.063                0.954812611     -55.2147677
9.064                0.954749629     -55.2893345
9.065                0.954686483     -55.3640832
9.066                0.954623172     -55.4390144
9.067                0.954559694     -55.5141287
9.068                0.954496049     -55.5894267
9.069                0.954432234     -55.6649091
9.07                 0.954368248     -55.7405763
9.071                 0.95430409     -55.8164291
9.072                0.954239758     -55.8924681
9.073                0.954175251     -55.9686938
9.074                0.954110567     -56.0451069
9.075                0.954045705     -56.1217081
9.076                0.953980663     -56.1984978
9.077                0.953915439     -56.2754768
9.078                0.953850033     -56.3526457
9.079                0.953784442     -56.4300051
9.08                 0.953718666     -56.5075557
9.081                0.953652702      -56.585298
9.082                 0.95358655     -56.6632328
9.083                0.953520207     -56.7413606
9.084                0.953453672     -56.8196821
9.085                0.953386943     -56.8981979
9.086                 0.95332002     -56.9769088
9.087                  0.9532529     -57.0558152
9.088                0.953185582     -57.1349179
9.089                0.953118065     -57.2142176
9.09                 0.953050346     -57.2937148
9.091                0.952982424     -57.3734103
9.092                0.952914298     -57.4533047
9.093                0.952845966     -57.5333986
9.094                0.952777427     -57.6136927
9.095                0.952708679     -57.6941878
9.096                 0.95263972     -57.7748844
9.097                0.952570548     -57.8557832
9.098                0.952501163     -57.9368849
9.099                0.952431563     -58.0181902
9.1                  0.952361745     -58.0996998
9.101                0.952291709     -58.1814142
9.102                0.952221452     -58.2633343
9.103                0.952150974     -58.3454607
9.104                0.952080272     -58.4277941
9.105                0.952009345     -58.5103351
9.106                0.951938191     -58.5930845
9.107                0.951866809     -58.6760429
9.108                0.951795197     -58.7592111
9.109                0.951723353     -58.8425898
9.11                 0.951651276     -58.9261796
9.111                0.951578963     -59.0099813
9.112                0.951506414     -59.0939955
9.113                0.951433627      -59.178223
9.114                  0.9513606     -59.2626645
9.115                0.951287331     -59.3473207
9.116                0.951213819     -59.4321923
9.117                0.951140062     -59.5172801
9.118                0.951066058     -59.6025847
9.119                0.950991806     -59.6881069
9.12                 0.950917304     -59.7738474
9.121                 0.95084255     -59.8598069
9.122                0.950767542     -59.9459862
9.123                 0.95069228      -60.032386
9.124                 0.95061676      -60.119007
9.125                0.950540982       -60.20585
9.126                0.950464944     -60.2929157
9.127                0.950388644     -60.3802049
9.128                0.950312079     -60.4677183
9.129                 0.95023525     -60.5554566
9.13                 0.950158153     -60.6434207
9.131                0.950080787     -60.7316113
9.132                 0.95000315      -60.820029
9.133                0.949925241     -60.9086748
9.134                0.949847058     -60.9975493
9.135                0.949768599     -61.0866533
9.136                0.949689862     -61.1759876
9.137                0.949610846      -61.265553
9.138                0.949531548     -61.3553502
9.139                0.949451967       -61.44538
9.14                 0.949372102     -61.5356432
9.141                 0.94929195     -61.6261405
9.142                0.949211509     -61.7168728
9.143                0.949130778     -61.8078409
9.144                0.949049756     -61.8990455
9.145                0.948968439     -61.9904874
9.146                0.948886827     -62.0821674
9.147                0.948804918     -62.1740864
9.148                0.948722709      -62.266245
9.149                  0.9486402     -62.3586443
9.15                 0.948557387     -62.4512848
9.151                 0.94847427     -62.5441675
9.152                0.948390847     -62.6372931
9.153                0.948307115     -62.7306625
9.154                0.948223073     -62.8242765
9.155                0.948138719      -62.918136
9.156                0.948054051     -63.0122416
9.157                0.947969067     -63.1065944
9.158                0.947883766      -63.201195
9.159                0.947798146     -63.2960443
9.16                 0.947712205     -63.3911432
9.161                 0.94762594     -63.4864926
9.162                 0.94753935     -63.5820931
9.163                0.947452434     -63.6779458
9.164                0.947365189     -63.7740514
9.165                0.947277613     -63.8704108
9.166                0.947189705     -63.9670248
9.167                0.947101462     -64.0638944
9.168                0.947012883     -64.1610202
9.169                0.946923966     -64.2584034
9.17                 0.946834709     -64.3560446
9.171                 0.94674511     -64.4539447
9.172                0.946655168     -64.5521047
9.173                0.946564879     -64.6505254
9.174                0.946474243     -64.7492077
9.175                0.946383258     -64.8481524
9.176                0.946291921     -64.9473605
9.177                 0.94620023     -65.0468328
9.178                0.946108184     -65.1465703
9.179                0.946015781     -65.2465737
9.18                 0.945923019     -65.3468441
9.181                0.945829896     -65.4473823
9.182                 0.94573641     -65.5481892
9.183                0.945642558     -65.6492657
9.184                 0.94554834     -65.7506128
9.185                0.945453753     -65.8522312
9.186                0.945358795     -65.9541221
9.187                0.945263464     -66.0562862
9.188                0.945167759     -66.1587245
9.189                0.945071677     -66.2614379
9.19                 0.944975216     -66.3644273
9.191                0.944878375     -66.4676938
9.192                0.944781151     -66.5712381
9.193                0.944683542     -66.6750613
9.194                0.944585547     -66.7791643
9.195                0.944487164      -66.883548
9.196                0.944388389     -66.9882133
9.197                0.944289223     -67.0931613
9.198                0.944189662     -67.1983929
9.199                0.944089705      -67.303909
9.2                  0.943989349     -67.4097106
9.201                0.943888593     -67.5157986
9.202                0.943787434      -67.622174
9.203                0.943685871     -67.7288379
9.204                0.943583902     -67.8357911
9.205                0.943481524     -67.9430346
9.206                0.943378736     -68.0505695
9.207                0.943275535     -68.1583966
9.208                 0.94317192      -68.266517
9.209                0.943067888     -68.3749317
9.21                 0.942963438     -68.4836417
9.211                0.942858568     -68.5926479
9.212                0.942753275     -68.7019513
9.213                0.942647557      -68.811553
9.214                0.942541413      -68.921454
9.215                0.942434841     -69.0316552
9.216                0.942327838     -69.1421577
9.217                0.942220402     -69.2529625
9.218                0.942112532     -69.3640706
9.219                0.942004225      -69.475483
9.22                 0.941895479     -69.5872008
9.221                0.941786292      -69.699225
9.222                0.941676663     -69.8115565
9.223                0.941566589     -69.9241965
9.224                0.941456069      -70.037146
9.225                0.941345099     -70.1504061
9.226                0.941233678     -70.2639777
9.227                0.941121805     -70.3778619
9.228                0.941009476     -70.4920598
9.229                0.940896691     -70.6065724
9.23                 0.940783446     -70.7214007
9.231                0.940669741      -70.836546
9.232                0.940555572     -70.9520091
9.233                0.940440938     -71.0677912
9.234                0.940325837     -71.1838933
9.235                0.940210266     -71.3003166
9.236                0.940094224      -71.417062
9.237                0.939977709     -71.5341307
9.238                0.939860719     -71.6515238
9.239                0.939743251     -71.7692424
9.24                 0.939625303     -71.8872874
9.241                0.939506874     -72.0056601
9.242                0.939387961     -72.1243616
9.243                0.939268563     -72.2433928
9.244                0.939148677      -72.362755
9.245                0.939028301     -72.4824493
9.246                0.938907433     -72.6024766
9.247                0.938786072     -72.7228383
9.248                0.938664215     -72.8435354
9.249                0.938541859     -72.9645689
9.25                 0.938419004     -73.0859401
9.251                0.938295647     -73.2076501
9.252                0.938171786     -73.3296999
9.253                0.938047419     -73.4520908
9.254                0.937922544     -73.5748238
9.255                0.937797158     -73.6979001
9.256                0.937671261     -73.8213209
9.257                0.937544849     -73.9450873
9.258                0.937417921     -74.0692004
9.259                0.937290475     -74.1936614
9.26                 0.937162509     -74.3184715
9.261                 0.93703402     -74.4436318
9.262                0.936905007     -74.5691435
9.263                0.936775468     -74.6950077
9.264                  0.9366454     -74.8212256
9.265                0.936514802     -74.9477985
9.266                0.936383672     -75.0747274
9.267                0.936252008     -75.2020136
9.268                0.936119807     -75.3296582
9.269                0.935987067     -75.4576624
9.27                 0.935853788     -75.5860275
9.271                0.935719966     -75.7147545
9.272                0.935585599     -75.8438448
9.273                0.935450687     -75.9732994
9.274                0.935315226     -76.1031197
9.275                0.935179215     -76.2333068
9.276                0.935042652     -76.3638619
9.277                0.934905534     -76.4947862
9.278                 0.93476786      -76.626081
9.279                0.934629629     -76.7577475
9.28                 0.934490837     -76.8897868
9.281                0.934351483     -77.0222003
9.282                0.934211565     -77.1549891
9.283                0.934071082     -77.2881545
9.284                 0.93393003     -77.4216977
9.285                0.933788409       -77.55562
9.286                0.933646216     -77.6899226
9.287                 0.93350345     -77.8246066
9.288                0.933360108     -77.9596735
9.289                0.933216189     -78.0951244
9.29                  0.93307169     -78.2309606
9.291                0.932926611     -78.3671833
9.292                0.932780948     -78.5037939
9.293                0.932634701     -78.6407934
9.294                0.932487866     -78.7781834
9.295                0.932340444     -78.9159649
9.296                 0.93219243     -79.0541392
9.297                0.932043825     -79.1927077
9.298                0.931894625     -79.3316717
9.299                 0.93174483     -79.4710323
9.3                  0.931594436     -79.6107909
9.301                0.931443444     -79.7509487
9.302                 0.93129185     -79.8915071
9.303                0.931139652     -80.0324674
9.304                 0.93098685     -80.1738308
9.305                0.930833441     -80.3155986
9.306                0.930679424     -80.4577721
9.307                0.930524797     -80.6003526
9.308                0.930369557     -80.7433415
9.309                0.930213705     -80.8867401
9.31                 0.930057236     -81.0305496
9.311                0.929900151     -81.1747713
9.312                0.929742447     -81.3194066
9.313                0.929584123     -81.4644568
9.314                0.929425177     -81.6099233
9.315                0.929265607     -81.7558072
9.316                0.929105411       -81.90211
9.317                0.928944589      -82.048833
9.318                0.928783138     -82.1959776
9.319                0.928621057     -82.3435449
9.32                 0.928458344     -82.4915365
9.321                0.928294998     -82.6399535
9.322                0.928131017     -82.7887975
9.323                0.927966399     -82.9380696
9.324                0.927801143     -83.0877713
9.325                0.927635248     -83.2379038
9.326                0.927468712     -83.3884686
9.327                0.927301534     -83.5394669
9.328                0.927133712     -83.6909002
9.329                0.926965244     -83.8427698
9.33                 0.926796129     -83.9950771
9.331                0.926626367     -84.1478233
9.332                0.926455954     -84.3010099
9.333                0.926284891     -84.4546382
9.334                0.926113175     -84.6087096
9.335                0.925940806     -84.7632255
9.336                0.925767781     -84.9181871
9.337                  0.9255941      -85.073596
9.338                0.925419762     -85.2294534
9.339                0.925244765     -85.3857608
9.34                 0.925069107     -85.5425194
9.341                0.924892788     -85.6997308
9.342                0.924715807     -85.8573961
9.343                0.924538161      -86.015517
9.344                0.924359851     -86.1740946
9.345                0.924180875     -86.3331304
9.346                0.924001231     -86.4926258
9.347                0.923820919     -86.6525822
9.348                0.923639938     -86.8130009
9.349                0.923458286     -86.9738833
9.35                 0.923275963     -87.1352308
9.351                0.923092967     -87.2970449
9.352                0.922909298     -87.4593268
9.353                0.922724955      -87.622078
9.354                0.922539936     -87.7852999
9.355                 0.92235424     -87.9489939
9.356                0.922167868     -88.1131613
9.357                0.921980818     -88.2778036
9.358                0.921793088     -88.4429221
9.359                0.921604679     -88.6085183
9.36                  0.92141559     -88.7745935
9.361                 0.92122582     -88.9411491
9.362                0.921035367     -89.1081865
9.363                0.920844232     -89.2757072
9.364                0.920652414     -89.4437125
9.365                0.920459912     -89.6122038
9.366                0.920266725     -89.7811825
9.367                0.920072854       -89.95065
9.368                0.919878297     -90.1206077
9.369                0.919683053      -90.291057
9.37                 0.919487123     -90.4619993
9.371                0.919290506      -90.633436
9.372                0.919093202     -90.8053685
9.373                 0.91889521     -90.9777982
9.374                0.918696529     -91.1507265
9.375                0.918497161     -91.3241547
9.376                0.918297103     -91.4980844
9.377                0.918096356     -91.6725167
9.378                0.917894921     -91.8474533
9.379                0.917692795     -92.0228954
9.38                 0.917489981     -92.1988444
9.381                0.917286476     -92.3753018
9.382                0.917082282     -92.5522688
9.383                0.916877399      -92.729747
9.384                0.916671825     -92.9077377
9.385                0.916465562     -93.0862423
9.386                 0.91625861     -93.2652621
9.387                0.916050968     -93.4447986
9.388                0.915842637     -93.6248531
9.389                0.915633617      -93.805427
9.39                 0.915423908     -93.9865217
9.391                 0.91521351     -94.1681385
9.392                0.915002425     -94.3502789
9.393                0.914790652     -94.5329442
9.394                0.914578191     -94.7161357
9.395                0.914365044     -94.8998549
9.396                 0.91415121     -95.0841031
9.397                0.913936691     -95.2688817
9.398                0.913721486      -95.454192
9.399                0.913505597     -95.6400353
9.4                  0.913289024     -95.8264131
9.401                0.913071768     -96.0133267
9.402                 0.91285383     -96.2007774
9.403                0.912635211     -96.3887666
9.404                0.912415911     -96.5772957
9.405                0.912195931     -96.7663659
9.406                0.911975273     -96.9559785
9.407                0.911753938      -97.146135
9.408                0.911531926     -97.3368367
9.409                0.911309238     -97.5280848
9.41                 0.911085877     -97.7198808
9.411                0.910861843     -97.9122258
9.412                0.910637137     -98.1051213
9.413                0.910411762     -98.2985685
9.414                0.910185717     -98.4925687
9.415                0.909959005     -98.6871233
9.416                0.909731628     -98.8822334
9.417                0.909503586     -99.0779005
9.418                0.909274882     -99.2741258
9.419                0.909045517     -99.4709106
9.42                 0.908815494     -99.6682561
9.421                0.908584813     -99.8661636
9.422                0.908353476     -100.064634
9.423                0.908121487      -100.26367
9.424                0.907888846     -100.463271
9.425                0.907655555     -100.663439
9.426                0.907421618     -100.864176
9.427                0.907187035     -101.065481
9.428                 0.90695181     -101.267358
9.429                0.906715944     -101.469807
9.43                  0.90647944     -101.672829
9.431                0.906242301     -101.876425
9.432                0.906004529     -102.080596
9.433                0.905766126     -102.285345
9.434                0.905527095     -102.490671
9.435                0.905287439     -102.696577
9.436                0.905047161     -102.903063
9.437                0.904806263      -103.11013
9.438                0.904564749      -103.31778
9.439                0.904322621     -103.526014
9.44                 0.904079882     -103.734832
9.441                0.903836536     -103.944237
9.442                0.903592586     -104.154228
9.443                0.903348035     -104.364808
9.444                0.903102887     -104.575978
9.445                0.902857144     -104.787738
9.446                0.902610811     -105.000089
9.447                0.902363891     -105.213033
9.448                0.902116387     -105.426571
9.449                0.901868304     -105.640703
9.45                 0.901619645     -105.855431
9.451                0.901370414     -106.070756
9.452                0.901120615     -106.286679
9.453                0.900870252     -106.503201
9.454                0.900619329     -106.720322
9.455                 0.90036785     -106.938045
9.456                0.900115821     -107.156369
9.457                0.899863244     -107.375296
9.458                0.899610124     -107.594827
9.459                0.899356467     -107.814963
9.46                 0.899102276     -108.035704
9.461                0.898847557     -108.257052
9.462                0.898592313     -108.479008
9.463                0.898336551     -108.701571
9.464                0.898080274     -108.924744
9.465                0.897823489     -109.148528
9.466                0.897566199     -109.372922
9.467                0.897308411     -109.597928
9.468                0.897050129     -109.823547
9.469                 0.89679136     -110.049779
9.47                 0.896532107     -110.276626
9.471                0.896272378     -110.504088
9.472                0.896012177     -110.732166
9.473                0.895751511      -110.96086
9.474                0.895490385     -111.190172
9.475                0.895228805     -111.420102
9.476                0.894966778     -111.650651
9.477                0.894704308     -111.881819
9.478                0.894441403     -112.113608
9.479                0.894178069     -112.346018
9.48                 0.893914312     -112.579049
9.481                0.893650139     -112.812703
9.482                0.893385556     -113.046979
9.483                 0.89312057     -113.281879
9.484                0.892855187     -113.517403
9.485                0.892589415     -113.753552
9.486                0.892323261     -113.990325
9.487                0.892056731     -114.227725
9.488                0.891789833      -114.46575
9.489                0.891522574     -114.704403
9.49                 0.891254961     -114.943683
9.491                0.890987002      -115.18359
9.492                0.890718704     -115.424126
9.493                0.890450075      -115.66529
9.494                0.890181123     -115.907083
9.495                0.889911856     -116.149505
9.496                0.889642281     -116.392558
9.497                0.889372407      -116.63624
9.498                0.889102241     -116.880553
9.499                0.888831792     -117.125496
9.5                  0.888561069     -117.371071
9.501                0.888290079     -117.617277
9.502                0.888018832     -117.864114
9.503                0.887747335     -118.111583
9.504                0.887475599     -118.359684
9.505                 0.88720363     -118.608417
9.506                 0.88693144     -118.857783
9.507                0.886659036      -119.10778
9.508                0.886386427     -119.358411
9.509                0.886113624     -119.609674
9.51                 0.885840635      -119.86157
9.511                 0.88556747     -120.114098
9.512                0.885294138     -120.367259
9.513                0.885020649     -120.621054
9.514                0.884747013      -120.87548
9.515                 0.88447324      -121.13054
9.516                 0.88419934     -121.386232
9.517                0.883925322     -121.642556
9.518                0.883651198     -121.899513
9.519                0.883376977     -122.157102
9.52                 0.883102669     -122.415324
9.521                0.882828285     -122.674177
9.522                0.882553837     -122.933661
9.523                0.882279334     -123.193777
9.524                0.882004787     -123.454524
9.525                0.881730207     -123.715902
9.526                0.881455605     -123.977911
9.527                0.881180993     -124.240549
9.528                0.880906381     -124.503817
9.529                0.880631781     -124.767714
9.53                 0.880357204      -125.03224
9.531                0.880082662     -125.297395
9.532                0.879808166     -125.563177
9.533                0.879533728     -125.829587
9.534                 0.87925936     -126.096623
9.535                0.878985074     -126.364285
9.536                0.878710882     -126.632573
9.537                0.878436795     -126.901486
9.538                0.878162826     -127.171023
9.539                0.877888988     -127.441183
9.54                 0.877615293     -127.711966
9.541                0.877341752     -127.983371
9.542                 0.87706838     -128.255398
9.543                0.876795187     -128.528044
9.544                0.876522188      -128.80131
9.545                0.876249396     -129.075195
9.546                0.875976822     -129.349697
9.547                 0.87570448     -129.624816
9.548                0.875432383      -129.90055
9.549                0.875160545     -130.176899
9.55                 0.874888979     -130.453862
9.551                0.874617698     -130.731437
9.552                0.874346715     -131.009624
9.553                0.874076045      -131.28842
9.554                  0.8738057     -131.567826
9.555                0.873535695      -131.84784
9.556                0.873266044      -132.12846
9.557                 0.87299676     -132.409685
9.558                0.872727857     -132.691514
9.559                 0.87245935     -132.973946
9.56                 0.872191252     -133.256979
9.561                0.871923578     -133.540611
9.562                0.871656342     -133.824842
9.563                0.871389559     -134.109669
9.564                0.871123242     -134.395092
9.565                0.870857408     -134.681108
9.566                0.870592069     -134.967716
9.567                0.870327241     -135.254915
9.568                0.870062938     -135.542702
9.569                0.869799176     -135.831077
9.57                 0.869535969     -136.120036
9.571                0.869273332     -136.409579
9.572                0.869011281     -136.699703
9.573                0.868749829     -136.990407
9.574                0.868488993     -137.281689
9.575                0.868228788     -137.573547
9.576                0.867969228     -137.865978
9.577                 0.86771033     -138.158982
9.578                0.867452108     -138.452555
9.579                0.867194578     -138.746696
9.58                 0.866937755     -139.041402
9.581                0.866681655     -139.336672
9.582                0.866426293     -139.632503
9.583                0.866171686     -139.928893
9.584                0.865917848      -140.22584
9.585                0.865664796     -140.523341
9.586                0.865412545     -140.821394
9.587                 0.86516111     -141.119997
9.588                0.864910509     -141.419147
9.589                0.864660756     -141.718841
9.59                 0.864411867     -142.019078
9.591                0.864163859     -142.319854
9.592                0.863916747     -142.621167
9.593                0.863670548     -142.923015
9.594                0.863425276     -143.225394
9.595                0.863180949     -143.528302
9.596                0.862937582     -143.831737
9.597                0.862695192     -144.135695
9.598                0.862453794     -144.440173
9.599                0.862213404     -144.745169
9.6                  0.861974039     -145.050681
9.601                0.861735715     -145.356704