! TOUCHSTONE file generated by CST DESIGN STUDIO
! Date and time: Tue Feb  4 17:58:55 2025
! Project name: C:\Work\MatlabApps\UnitCellOptimizationMatlab\CST\unitcell.cst
! Tree item: Tasks\Sweep1\SPara1\S-Parameters
! Header version: 2024
! Port assignment regex: !\s*Touchstone port\s*([0-9]+)\s*=\s*(CST MWS port|CST DES external port|CST DES block port)\s*(.+)\s* \(\"(.*)\"\)(\s*mode\s*([0-9]+))?.*
! Touchstone port assignment:
! Touchstone port 1 = CST DES external port 1 ("")
# GHz S MA R 50
9                    0.971805865     -40.2829632
9.001                 0.97174635     -40.3299541
9.002                0.971686655     -40.3770265
9.003                0.971626781     -40.4241809
9.004                0.971566726     -40.4714174
9.005                0.971506491     -40.5187362
9.006                0.971446076     -40.5661376
9.007                 0.97138548     -40.6136219
9.008                0.971324702     -40.6611892
9.009                0.971263743     -40.7088398
9.01                 0.971202602      -40.756574
9.011                0.971141279     -40.8043919
9.012                0.971079774     -40.8522939
9.013                0.971018085     -40.9002801
9.014                0.970956214     -40.9483509
9.015                0.970894159     -40.9965063
9.016                 0.97083192     -41.0447468
9.017                0.970769498     -41.0930726
9.018                 0.97070689     -41.1414838
9.019                0.970644098     -41.1899807
9.02                 0.970581122     -41.2385636
9.021                0.970517959     -41.2872328
9.022                0.970454611     -41.3359884
9.023                0.970391077     -41.3848308
9.024                0.970327356     -41.4337602
9.025                0.970263449     -41.4827768
9.026                0.970199355     -41.5318809
9.027                0.970135073     -41.5810727
9.028                0.970070603     -41.6303525
9.029                0.970005946     -41.6797206
9.03                   0.9699411     -41.7291773
9.031                0.969876065     -41.7787226
9.032                 0.96981084     -41.8283571
9.033                0.969745427     -41.8780808
9.034                0.969679823      -41.927894
9.035                0.969614029     -41.9777971
9.036                0.969548045     -42.0277903
9.037                 0.96948187     -42.0778738
9.038                0.969415503     -42.1280479
9.039                0.969348944      -42.178313
9.04                 0.969282194     -42.2286691
9.041                0.969215251     -42.2791167
9.042                0.969148115     -42.3296559
9.043                0.969080786     -42.3802871
9.044                0.969013264     -42.4310106
9.045                0.968945547     -42.4818265
9.046                0.968877636     -42.5327352
9.047                0.968809531     -42.5837369
9.048                 0.96874123      -42.634832
9.049                0.968672734     -42.6860207
9.05                 0.968604042     -42.7373032
9.051                0.968535153     -42.7886799
9.052                0.968466068      -42.840151
9.053                0.968396786     -42.8917169
9.054                0.968327306     -42.9433777
9.055                0.968257629     -42.9951338
9.056                0.968187753     -43.0469855
9.057                0.968117678     -43.0989331
9.058                0.968047404     -43.1509767
9.059                0.967976931     -43.2031168
9.06                 0.967906257     -43.2553536
9.061                0.967835384     -43.3076874
9.062                0.967764309     -43.3601185
9.063                0.967693034     -43.4126472
9.064                0.967621556     -43.4652737
9.065                0.967549877     -43.5179984
9.066                0.967477995     -43.5708216
9.067                 0.96740591     -43.6237435
9.068                0.967333622     -43.6767645
9.069                0.967261129     -43.7298848
9.07                 0.967188433     -43.7831048
9.071                0.967115532     -43.8364248
9.072                0.967042426      -43.889845
9.073                0.966969114     -43.9433657
9.074                0.966895596     -43.9969873
9.075                0.966821872     -44.0507101
9.076                 0.96674794     -44.1045344
9.077                0.966673802     -44.1584604
9.078                0.966599455     -44.2124885
9.079                  0.9665249      -44.266619
9.08                 0.966450136     -44.3208523
9.081                0.966375163     -44.3751885
9.082                 0.96629998     -44.4296281
9.083                0.966224587     -44.4841713
9.084                0.966148983     -44.5388185
9.085                0.966073168       -44.59357
9.086                0.965997142      -44.648426
9.087                0.965920903      -44.703387
9.088                0.965844452     -44.7584532
9.089                0.965767787      -44.813625
9.09                 0.965690909     -44.8689027
9.091                0.965613817     -44.9242865
9.092                 0.96553651     -44.9797769
9.093                0.965458988     -45.0353742
9.094                 0.96538125     -45.0910786
9.095                0.965303296     -45.1468906
9.096                0.965225126     -45.2028103
9.097                0.965146738     -45.2588383
9.098                0.965068133     -45.3149748
9.099                0.964989309     -45.3712201
9.1                  0.964910267     -45.4275746
9.101                0.964831006     -45.4840386
9.102                0.964751525     -45.5406124
9.103                0.964671823     -45.5972965
9.104                0.964591901      -45.654091
9.105                0.964511757     -45.7109965
9.106                0.964431391     -45.7680131
9.107                0.964350803     -45.8251413
9.108                0.964269992     -45.8823814
9.109                0.964188958     -45.9397338
9.11                 0.964107699     -45.9971988
9.111                0.964026216     -46.0547767
9.112                0.963944507     -46.1124679
9.113                0.963862573     -46.1702727
9.114                0.963780412     -46.2281916
9.115                0.963698025     -46.2862248
9.116                 0.96361541     -46.3443727
9.117                0.963532567     -46.4026357
9.118                0.963449495     -46.4610142
9.119                0.963366195     -46.5195084
9.12                 0.963282664     -46.5781188
9.121                0.963198903     -46.6368457
9.122                0.963114911     -46.6956895
9.123                0.963030688     -46.7546505
9.124                0.962946232     -46.8137291
9.125                0.962861544     -46.8729257
9.126                0.962776623     -46.9322407
9.127                0.962691467     -46.9916744
9.128                0.962606077     -47.0512272
9.129                0.962520452     -47.1108994
9.13                 0.962434591     -47.1706915
9.131                0.962348494     -47.2306038
9.132                 0.96226216     -47.2906367
9.133                0.962175588     -47.3507906
9.134                0.962088778     -47.4110659
9.135                0.962001729     -47.4714629
9.136                 0.96191444      -47.531982
9.137                0.961826912     -47.5926237
9.138                0.961739142     -47.6533882
9.139                0.961651131      -47.714276
9.14                 0.961562879     -47.7752875
9.141                0.961474383     -47.8364231
9.142                0.961385644     -47.8976832
9.143                0.961296661     -47.9590681
9.144                0.961207433     -48.0205783
9.145                 0.96111796     -48.0822141
9.146                0.961028241     -48.1439759
9.147                0.960938276     -48.2058643
9.148                0.960848063     -48.2678794
9.149                0.960757602     -48.3300219
9.15                 0.960666892      -48.392292
9.151                0.960575933     -48.4546902
9.152                0.960484723     -48.5172168
9.153                0.960393263     -48.5798724
9.154                0.960301552     -48.6426572
9.155                0.960209588     -48.7055718
9.156                0.960117372     -48.7686165
9.157                0.960024901     -48.8317917
9.158                0.959932177     -48.8950979
9.159                0.959839198     -48.9585355
9.16                 0.959745963     -49.0221049
9.161                0.959652471     -49.0858065
9.162                0.959558723     -49.1496408
9.163                0.959464716     -49.2136081
9.164                0.959370451      -49.277709
9.165                0.959275927     -49.3419437
9.166                0.959181142     -49.4063129
9.167                0.959086097     -49.4708168
9.168                 0.95899079      -49.535456
9.169                0.958895221     -49.6002309
9.17                 0.958799389     -49.6651418
9.171                0.958703293     -49.7301893
9.172                0.958606932     -49.7953738
9.173                0.958510306     -49.8606957
9.174                0.958413414     -49.9261555
9.175                0.958316255     -49.9917536
9.176                0.958218829     -50.0574905
9.177                0.958121134     -50.1233666
9.178                 0.95802317     -50.1893824
9.179                0.957924936     -50.2555382
9.18                 0.957826431     -50.3218347
9.181                0.957727655     -50.3882722
9.182                0.957628606     -50.4548512
9.183                0.957529284     -50.5215721
9.184                0.957429688     -50.5884354
9.185                0.957329817     -50.6554417
9.186                0.957229671     -50.7225912
9.187                0.957129248     -50.7898846
9.188                0.957028548     -50.8573222
9.189                0.956927571     -50.9249046
9.19                 0.956826314     -50.9926322
9.191                0.956724777     -51.0605056
9.192                 0.95662296      -51.128525
9.193                0.956520862     -51.1966912
9.194                0.956418481     -51.2650044
9.195                0.956315818     -51.3334653
9.196                 0.95621287     -51.4020743
9.197                0.956109638     -51.4708318
9.198                 0.95600612     -51.5397384
9.199                0.955902315     -51.6087946
9.2                  0.955798223     -51.6780008
9.201                0.955693843     -51.7473576
9.202                0.955589174     -51.8168654
9.203                0.955484215     -51.8865247
9.204                0.955378965      -51.956336
9.205                0.955273423     -52.0262999
9.206                0.955167588     -52.0964168
9.207                 0.95506146     -52.1666873
9.208                0.954955038     -52.2371118
9.209                 0.95484832     -52.3076909
9.21                 0.954741306      -52.378425
9.211                0.954633995     -52.4493147
9.212                0.954526386     -52.5203605
9.213                0.954418477     -52.5915629
9.214                0.954310269     -52.6629224
9.215                 0.95420176     -52.7344396
9.216                0.954092949     -52.8061149
9.217                0.953983836      -52.877949
9.218                0.953874418     -52.9499422
9.219                0.953764696     -53.0220952
9.22                 0.953654669     -53.0944085
9.221                0.953544335     -53.1668826
9.222                0.953433694      -53.239518
9.223                0.953322744     -53.3123154
9.224                0.953211485     -53.3852751
9.225                0.953099915     -53.4583978
9.226                0.952988034      -53.531684
9.227                0.952875841     -53.6051342
9.228                0.952763335     -53.6787491
9.229                0.952650514     -53.7525291
9.23                 0.952537378     -53.8264748
9.231                0.952423926     -53.9005867
9.232                0.952310156     -53.9748655
9.233                0.952196068     -54.0493116
9.234                0.952081661     -54.1239256
9.235                0.951966934     -54.1987082
9.236                0.951851885     -54.2736597
9.237                0.951736514     -54.3487809
9.238                0.951620819     -54.4240723
9.239                0.951504801     -54.4995344
9.24                 0.951388456     -54.5751679
9.241                0.951271786     -54.6509733
9.242                0.951154788     -54.7269511
9.243                0.951037461      -54.803102
9.244                0.950919804     -54.8794266
9.245                0.950801817     -54.9559254
9.246                0.950683499     -55.0325989
9.247                0.950564847     -55.1094479
9.248                0.950445862     -55.1864729
9.249                0.950326542     -55.2636745
9.25                 0.950206886     -55.3410533
9.251                0.950086892     -55.4186098
9.252                0.949966561     -55.4963448
9.253                 0.94984589     -55.5742587
9.254                0.949724879     -55.6523522
9.255                0.949603526     -55.7306259
9.256                0.949481831     -55.8090804
9.257                0.949359793     -55.8877163
9.258                0.949237409     -55.9665342
9.259                 0.94911468     -56.0455348
9.26                 0.948991603     -56.1247187
9.261                0.948868179     -56.2040865
9.262                0.948744405     -56.2836387
9.263                0.948620281     -56.3633761
9.264                0.948495805     -56.4432993
9.265                0.948370977     -56.5234089
9.266                0.948245795     -56.6037055
9.267                0.948120257     -56.6841898
9.268                0.947994364     -56.7648623
9.269                0.947868114     -56.8457239
9.27                 0.947741504      -56.926775
9.271                0.947614536     -57.0080163
9.272                0.947487206     -57.0894486
9.273                0.947359515     -57.1710723
9.274                 0.94723146     -57.2528883
9.275                0.947103041     -57.3348971
9.276                0.946974257     -57.4170994
9.277                0.946845105     -57.4994959
9.278                0.946715586     -57.5820872
9.279                0.946585698      -57.664874
9.28                 0.946455439     -57.7478569
9.281                0.946324809     -57.8310367
9.282                0.946193806      -57.914414
9.283                0.946062429     -57.9979895
9.284                0.945930677     -58.0817638
9.285                0.945798548     -58.1657377
9.286                0.945666042     -58.2499118
9.287                0.945533157     -58.3342868
9.288                0.945399891     -58.4188635
9.289                0.945266244     -58.5036424
9.29                 0.945132215     -58.5886243
9.291                0.944997801     -58.6738099
9.292                0.944863003     -58.7591999
9.293                0.944727818      -58.844795
9.294                0.944592245     -58.9305959
9.295                0.944456283     -59.0166032
9.296                0.944319931     -59.1028178
9.297                0.944183188     -59.1892403
9.298                0.944046051     -59.2758715
9.299                0.943908521      -59.362712
9.3                  0.943770595     -59.4497627
9.301                0.943632272     -59.5370241
9.302                0.943493551     -59.6244971
9.303                0.943354431     -59.7121823
9.304                 0.94321491     -59.8000805
9.305                0.943074988     -59.8881925
9.306                0.942934662     -59.9765189
9.307                0.942793931     -60.0650606
9.308                0.942652795     -60.1538182
9.309                0.942511251     -60.2427926
9.31                 0.942369299     -60.3319843
9.311                0.942226937     -60.4213943
9.312                0.942084163     -60.5110233
9.313                0.941940977      -60.600872
9.314                0.941797377     -60.6909411
9.315                0.941653362     -60.7812316
9.316                 0.94150893      -60.871744
9.317                0.941364079     -60.9624792
9.318                 0.94121881      -61.053438
9.319                0.941073119     -61.1446211
9.32                 0.940927007     -61.2360293
9.321                0.940780471     -61.3276635
9.322                 0.94063351     -61.4195243
9.323                0.940486122     -61.5116126
9.324                0.940338307     -61.6039291
9.325                0.940190063     -61.6964747
9.326                0.940041388     -61.7892501
9.327                0.939892281     -61.8822562
9.328                0.939742741     -61.9754937
9.329                0.939592767     -62.0689635
9.33                 0.939442356     -62.1626664
9.331                0.939291507     -62.2566031
9.332                 0.93914022     -62.3507745
9.333                0.938988492     -62.4451815
9.334                0.938836323     -62.5398248
9.335                 0.93868371     -62.6347052
9.336                0.938530652     -62.7298236
9.337                0.938377148     -62.8251808
9.338                0.938223197     -62.9207777
9.339                0.938068796      -63.016615
9.34                 0.937913946     -63.1126937
9.341                0.937758643     -63.2090146
9.342                0.937602887     -63.3055784
9.343                0.937446675     -63.4023861
9.344                0.937290008     -63.4994385
9.345                0.937132883     -63.5967365
9.346                0.936975299     -63.6942809
9.347                0.936817253     -63.7920727
9.348                0.936658746     -63.8901125
9.349                0.936499775     -63.9884014
9.35                 0.936340339     -64.0869402
9.351                0.936180436     -64.1857297
9.352                0.936020065     -64.2847709
9.353                0.935859225     -64.3840646
9.354                0.935697913     -64.4836117
9.355                0.935536129     -64.5834132
9.356                 0.93537387     -64.6834698
9.357                0.935211136     -64.7837825
9.358                0.935047925     -64.8843521
9.359                0.934884235     -64.9851797
9.36                 0.934720066      -65.086266
9.361                0.934555414     -65.1876121
9.362                0.934390279     -65.2892187
9.363                 0.93422466     -65.3910869
9.364                0.934058555     -65.4932175
9.365                0.933891961     -65.5956114
9.366                0.933724879     -65.6982696
9.367                0.933557306     -65.8011931
9.368                 0.93338924     -65.9043826
9.369                0.933220681     -66.0078393
9.37                 0.933051626      -66.111564
9.371                0.932882074     -66.2155576
9.372                0.932712024     -66.3198211
9.373                0.932541474     -66.4243554
9.374                0.932370422     -66.5291615
9.375                0.932198868     -66.6342404
9.376                0.932026809      -66.739593
9.377                0.931854243     -66.8452203
9.378                 0.93168117     -66.9511232
9.379                0.931507588     -67.0573027
9.38                 0.931333495     -67.1637597
9.381                0.931158889     -67.2704954
9.382                 0.93098377     -67.3775105
9.383                0.930808135     -67.4848062
9.384                0.930631984     -67.5923833
9.385                0.930455313      -67.700243
9.386                0.930278123     -67.8083861
9.387                0.930100411     -67.9168137
9.388                0.929922175     -68.0255267
9.389                0.929743415     -68.1345263
9.39                 0.929564128     -68.2438133
9.391                0.929384314     -68.3533888
9.392                 0.92920397     -68.4632538
9.393                0.929023095     -68.5734094
9.394                0.928841687     -68.6838565
9.395                0.928659746     -68.7945961
9.396                0.928477268     -68.9056294
9.397                0.928294253     -69.0169573
9.398                  0.9281107     -69.1285809
9.399                0.927926606     -69.2405011
9.4                   0.92774197     -69.3527192
9.401                 0.92755679      -69.465236
9.402                0.927371065     -69.5780526
9.403                0.927184794     -69.6911702
9.404                0.926997974     -69.8045897
9.405                0.926810605     -69.9183122
9.406                0.926622684     -70.0323388
9.407                0.926434211     -70.1466706
9.408                0.926245182     -70.2613085
9.409                0.926055598     -70.3762538
9.41                 0.925865456     -70.4915074
9.411                0.925674756     -70.6070705
9.412                0.925483494     -70.7229441
9.413                 0.92529167     -70.8391293
9.414                0.925099283     -70.9556273
9.415                 0.92490633     -71.0724391
9.416                 0.92471281     -71.1895658
9.417                0.924518722     -71.3070085
9.418                0.924324063     -71.4247683
9.419                0.924128834     -71.5428464
9.42                 0.923933031     -71.6612439
9.421                0.923736654     -71.7799618
9.422                  0.9235397     -71.8990013
9.423                0.923342169     -72.0183636
9.424                0.923144059     -72.1380497
9.425                0.922945368     -72.2580608
9.426                0.922746095      -72.378398
9.427                0.922546238     -72.4990624
9.428                0.922345796     -72.6200553
9.429                0.922144767     -72.7413778
9.43                  0.92194315     -72.8630309
9.431                0.921740943     -72.9850159
9.432                0.921538145      -73.107334
9.433                0.921334754     -73.2299862
9.434                0.921130769     -73.3529738
9.435                0.920926188     -73.4762979
9.436                 0.92072101     -73.5999597
9.437                0.920515233     -73.7239603
9.438                0.920308856      -73.848301
9.439                0.920101878      -73.972983
9.44                 0.919894296     -74.0980074
9.441                 0.91968611     -74.2233754
9.442                0.919477318     -74.3490882
9.443                0.919267919      -74.475147
9.444                0.919057911     -74.6015531
9.445                0.918847292     -74.7283076
9.446                0.918636062     -74.8554117
9.447                0.918424218     -74.9828666
9.448                0.918211761     -75.1106737
9.449                0.917998687      -75.238834
9.45                 0.917784996     -75.3673488
9.451                0.917570686     -75.4962193
9.452                0.917355756     -75.6254469
9.453                0.917140205     -75.7550326
9.454                 0.91692403     -75.8849778
9.455                0.916707232     -76.0152837
9.456                0.916489808     -76.1459515
9.457                0.916271757     -76.2769825
9.458                0.916053078     -76.4083779
9.459                 0.91583377      -76.540139
9.46                  0.91561383     -76.6722671
9.461                0.915393259     -76.8047634
9.462                0.915172054     -76.9376292
9.463                0.914950214     -77.0708658
9.464                0.914727739     -77.2044744
9.465                0.914504626     -77.3384563
9.466                0.914280874     -77.4728128
9.467                0.914056483     -77.6075452
9.468                0.913831451     -77.7426547
9.469                0.913605776     -77.8781427
9.47                 0.913379458     -78.0140105
9.471                0.913152496     -78.1502593
9.472                0.912924888     -78.2868905
9.473                0.912696632     -78.4239053
9.474                0.912467729     -78.5613051
9.475                0.912238176     -78.6990912
9.476                0.912007973     -78.8372649
9.477                0.911777119     -78.9758276
9.478                0.911545611     -79.1147804
9.479                0.911313451     -79.2541249
9.48                 0.911080635     -79.3938622
9.481                0.910847163     -79.5339938
9.482                0.910613034     -79.6745209
9.483                0.910378248     -79.8154449
9.484                0.910142802     -79.9567672
9.485                0.909906697     -80.0984891
9.486                 0.90966993      -80.240612
9.487                0.909432502     -80.3831371
9.488                 0.90919441     -80.5260659
9.489                0.908955655     -80.6693997
9.49                 0.908716235     -80.8131398
9.491                0.908476149     -80.9572877
9.492                0.908235397     -81.1018447
9.493                0.907993978     -81.2468122
9.494                 0.90775189     -81.3921915
9.495                0.907509133      -81.537984
9.496                0.907265706     -81.6841912
9.497                0.907021608     -81.8308143
9.498                0.906776839     -81.9778548
9.499                0.906531397     -82.1253141
9.5                  0.906285283     -82.2731935
9.501                0.906038495     -82.4214945
9.502                0.905791032     -82.5702184
9.503                0.905542894     -82.7193666
9.504                0.905294081     -82.8689406
9.505                0.905044591     -83.0189418
9.506                0.904794425     -83.1693715
9.507                 0.90454358     -83.3202311
9.508                0.904292058     -83.4715222
9.509                0.904039857      -83.623246
9.51                 0.903786977     -83.7754041
9.511                0.903533418     -83.9279978
9.512                0.903279178     -84.0810286
9.513                0.903024258     -84.2344978
9.514                0.902768656      -84.388407
9.515                0.902512374     -84.5427575
9.516                 0.90225541     -84.6975508
9.517                0.901997763     -84.8527883
9.518                0.901739435     -85.0084714
9.519                0.901480423     -85.1646017
9.52                 0.901220729     -85.3211805
9.521                0.900960352     -85.4782092
9.522                0.900699292     -85.6356894
9.523                0.900437548     -85.7936224
9.524                 0.90017512     -85.9520098
9.525                0.899912009      -86.110853
9.526                0.899648214     -86.2701534
9.527                0.899383735     -86.4299124
9.528                0.899118573     -86.5901316
9.529                0.898852726     -86.7508124
9.53                 0.898586196     -86.9119563
9.531                0.898318982     -87.0735647
9.532                0.898051084     -87.2356391
9.533                0.897782504      -87.398181
9.534                 0.89751324     -87.5611917
9.535                0.897243292     -87.7246729
9.536                0.896972663      -87.888626
9.537                 0.89670135     -88.0530523
9.538                0.896429356     -88.2179535
9.539                0.896156679      -88.383331
9.54                 0.895883322     -88.5491863
9.541                0.895609283     -88.7155208
9.542                0.895334564      -88.882336
9.543                0.895059165     -89.0496334
9.544                0.894783086     -89.2174144
9.545                0.894506329     -89.3856807
9.546                0.894228893     -89.5544336
9.547                 0.89395078     -89.7236746
9.548                 0.89367199     -89.8934052
9.549                0.893392524     -90.0636269
9.55                 0.893112383     -90.2343412
9.551                0.892831567     -90.4055495
9.552                0.892550078     -90.5772534
9.553                0.892267916     -90.7494543
9.554                0.891985082     -90.9221537
9.555                0.891701578     -91.0953531
9.556                0.891417404     -91.2690541
9.557                0.891132562      -91.443258
9.558                0.890847052     -91.6179663
9.559                0.890560876     -91.7931806
9.56                 0.890274035     -91.9689024
9.561                0.889986531      -92.145133
9.562                0.889698364     -92.3218741
9.563                0.889409537      -92.499127
9.564                 0.88912005     -92.6768933
9.565                0.888829905     -92.8551745
9.566                0.888539104      -93.033972
9.567                0.888247648     -93.2132874
9.568                0.887955538      -93.393122
9.569                0.887662777     -93.5734774
9.57                 0.887369367     -93.7543551
9.571                0.887075308     -93.9357566
9.572                0.886780604     -94.1176832
9.573                0.886485255     -94.3001366
9.574                0.886189265     -94.4831181
9.575                0.885892634     -94.6666292
9.576                0.885595365     -94.8506715
9.577                 0.88529746     -95.0352463
9.578                0.884998921     -95.2203552
9.579                0.884699751     -95.4059996
9.58                 0.884399952     -95.5921809
9.581                0.884099526     -95.7789008
9.582                0.883798476     -95.9661604
9.583                0.883496804     -96.1539615
9.584                0.883194512     -96.3423053
9.585                0.882891604     -96.5311935
9.586                0.882588082     -96.7206273
9.587                0.882283949     -96.9106082
9.588                0.881979208     -97.1011378
9.589                0.881673861     -97.2922174
9.59                 0.881367911     -97.4838484
9.591                0.881061362     -97.6760324
9.592                0.880754217     -97.8687706
9.593                0.880446478     -98.0620647
9.594                0.880138149     -98.2559159
9.595                0.879829234     -98.4503257
9.596                0.879519735     -98.6452955
9.597                0.879209656     -98.8408267
9.598                   0.878899     -99.0369208
9.599                0.878587772     -99.2335791
9.6                  0.878275974      -99.430803
9.601                0.877963611     -99.6285939