! TOUCHSTONE file generated by CST DESIGN STUDIO
! Date and time: Tue Feb  4 13:46:31 2025
! Project name: C:\Work\MatlabApps\UnitCellOptimizationMatlab\CST\unitcell.cst
! Tree item: Tasks\Sweep1\SPara1\S-Parameters
! Header version: 2024
! Port assignment regex: !\s*Touchstone port\s*([0-9]+)\s*=\s*(CST MWS port|CST DES external port|CST DES block port)\s*(.+)\s* \(\"(.*)\"\)(\s*mode\s*([0-9]+))?.*
! Touchstone port assignment:
! Touchstone port 1 = CST DES external port 1 ("")
# GHz S MA R 50
9                    0.960720501     -84.1128359
9.001                0.960627954     -84.2531419
9.002                0.960535163     -84.3938246
9.003                0.960442127     -84.5348851
9.004                0.960348845     -84.6763245
9.005                0.960255318     -84.8181439
9.006                0.960161545     -84.9603446
9.007                0.960067525     -85.1029275
9.008                0.959973257     -85.2458939
9.009                0.959878743     -85.3892449
9.01                  0.95978398     -85.5329815
9.011                0.959688968      -85.677105
9.012                0.959593708     -85.8216165
9.013                0.959498198     -85.9665171
9.014                0.959402438      -86.111808
9.015                0.959306429     -86.2574902
9.016                0.959210168      -86.403565
9.017                0.959113657     -86.5500335
9.018                0.959016894     -86.6968968
9.019                 0.95891988     -86.8441561
9.02                 0.958822613     -86.9918125
9.021                0.958725094     -87.1398671
9.022                0.958627322     -87.2883212
9.023                0.958529297     -87.4371759
9.024                0.958431018     -87.5864323
9.025                0.958332486     -87.7360915
9.026                0.958233699     -87.8861548
9.027                0.958134658     -88.0366232
9.028                0.958035362      -88.187498
9.029                0.957935811     -88.3387803
9.03                 0.957836004     -88.4904712
9.031                0.957735942     -88.6425719
9.032                0.957635624     -88.7950835
9.033                0.957535049     -88.9480073
9.034                0.957434219     -89.1013444
9.035                0.957333131     -89.2550958
9.036                0.957231786     -89.4092629
9.037                0.957130185     -89.5638467
9.038                0.957028326     -89.7188484
9.039                0.956926209     -89.8742692
9.04                 0.956823835     -90.0301102
9.041                0.956721202     -90.1863726
9.042                0.956618312     -90.3430576
9.043                0.956515163     -90.5001662
9.044                0.956411756     -90.6576997
9.045                 0.95630809     -90.8156593
9.046                0.956204166     -90.9740461
9.047                0.956099983     -91.1328612
9.048                0.955995541     -91.2921058
9.049                 0.95589084     -91.4517811
9.05                  0.95578588     -91.6118882
9.051                 0.95568066     -91.7724283
9.052                0.955575182     -91.9334026
9.053                0.955469444     -92.0948122
9.054                0.955363447     -92.2566583
9.055                0.955257191     -92.4189419
9.056                0.955150676     -92.5816644
9.057                0.955043901     -92.7448268
9.058                0.954936867     -92.9084304
9.059                0.954829574     -93.0724761
9.06                 0.954722022     -93.2369653
9.061                0.954614211     -93.4018991
9.062                0.954506141     -93.5672785
9.063                0.954397811     -93.7331049
9.064                0.954289224     -93.8993792
9.065                0.954180377     -94.0661027
9.066                0.954071272     -94.2332766
9.067                0.953961909     -94.4009018
9.068                0.953852287     -94.5689797
9.069                0.953742408     -94.7375114
9.07                  0.95363227     -94.9064979
9.071                0.953521875     -95.0759405
9.072                0.953411223     -95.2458403
9.073                0.953300314     -95.4161983
9.074                0.953189148     -95.5870159
9.075                0.953077725      -95.758294
9.076                0.952966046     -95.9300338
9.077                0.952854112     -96.1022364
9.078                0.952741921     -96.2749031
9.079                0.952629476     -96.4480348
9.08                 0.952516775     -96.6216327
9.081                 0.95240382      -96.795698
9.082                0.952290611     -96.9702318
9.083                0.952177149     -97.1452351
9.084                0.952063433     -97.3207091
9.085                0.951949465     -97.4966549
9.086                0.951835244     -97.6730737
9.087                0.951720771     -97.8499664
9.088                0.951606048     -98.0273343
9.089                0.951491074     -98.2051784
9.09                 0.951375849     -98.3834998
9.091                0.951260375     -98.5622996
9.092                0.951144652     -98.7415789
9.093                0.951028681     -98.9213388
9.094                0.950912462     -99.1015803
9.095                0.950795996     -99.2823046
9.096                0.950679284     -99.4635128
9.097                0.950562326     -99.6452058
9.098                0.950445123     -99.8273848
9.099                0.950327677     -100.010051
9.1                  0.950209986     -100.193205
9.101                0.950092054     -100.376848
9.102                0.949973879     -100.560982
9.103                0.949855464     -100.745606
9.104                0.949736808     -100.930723
9.105                0.949617913     -101.116334
9.106                 0.94949878     -101.302438
9.107                 0.94937941     -101.489038
9.108                0.949259803     -101.676135
9.109                0.949139961     -101.863729
9.11                 0.949019885     -102.051821
9.111                0.948899575     -102.240413
9.112                0.948779033     -102.429506
9.113                 0.94865826     -102.619099
9.114                0.948537256     -102.809196
9.115                0.948416024     -102.999795
9.116                0.948294563     -103.190899
9.117                0.948172876     -103.382509
9.118                0.948050964     -103.574625
9.119                0.947928828     -103.767248
9.12                 0.947806468      -103.96038
9.121                0.947683887     -104.154021
9.122                0.947561085     -104.348172
9.123                0.947438065     -104.542834
9.124                0.947314827     -104.738008
9.125                0.947191372     -104.933696
9.126                0.947067703     -105.129897
9.127                 0.94694382     -105.326613
9.128                0.946819726     -105.523844
9.129                0.946695421     -105.721593
9.13                 0.946570908     -105.919859
9.131                0.946446187     -106.118643
9.132                 0.94632126     -106.317947
9.133                 0.94619613      -106.51777
9.134                0.946070797     -106.718115
9.135                0.945945264     -106.918982
9.136                0.945819531     -107.120371
9.137                0.945693601     -107.322284
9.138                0.945567476     -107.524721
9.139                0.945441158     -107.727684
9.14                 0.945314647     -107.931172
9.141                0.945187947     -108.135187
9.142                0.945061059      -108.33973
9.143                0.944933985     -108.544801
9.144                0.944806727     -108.750401
9.145                0.944679286     -108.956532
9.146                0.944551666     -109.163192
9.147                0.944423868     -109.370385
9.148                0.944295893     -109.578109
9.149                0.944167746     -109.786366
9.15                 0.944039426     -109.995157
9.151                0.943910938     -110.204482
9.152                0.943782282     -110.414342
9.153                0.943653461     -110.624738
9.154                0.943524478      -110.83567
9.155                0.943395335     -111.047139
9.156                0.943266034     -111.259146
9.157                0.943136577     -111.471691
9.158                0.943006968     -111.684774
9.159                0.942877208     -111.898398
9.16                   0.9427473     -112.112561
9.161                0.942617247     -112.327265
9.162                0.942487051     -112.542511
9.163                0.942356715     -112.758298
9.164                0.942226241     -112.974628
9.165                0.942095633     -113.191501
9.166                0.941964892     -113.408917
9.167                0.941834022     -113.626877
9.168                0.941703026     -113.845382
9.169                0.941571906     -114.064432
9.17                 0.941440665     -114.284027
9.171                0.941309306     -114.504169
9.172                0.941177833     -114.724856
9.173                0.941046247     -114.946091
9.174                0.940914553     -115.167873
9.175                0.940782753     -115.390202
9.176                 0.94065085      -115.61308
9.177                0.940518847     -115.836506
9.178                0.940386748     -116.060481
9.179                0.940254556     -116.285005
9.18                 0.940122274     -116.510078
9.181                0.939989906     -116.735702
9.182                0.939857454     -116.961875
9.183                0.939724923     -117.188599
9.184                0.939592315     -117.415874
9.185                0.939459634       -117.6437
9.186                0.939326883     -117.872077
9.187                0.939194067     -118.101005
9.188                0.939061188     -118.330485
9.189                0.938928251     -118.560517
9.19                 0.938795258     -118.791101
9.191                0.938662214     -119.022238
9.192                0.938529123     -119.253926
9.193                0.938395987     -119.486167
9.194                0.938262812     -119.718961
9.195                  0.9381296     -119.952307
9.196                0.937996356     -120.186206
9.197                0.937863083     -120.420658
9.198                0.937729786     -120.655663
9.199                0.937596469     -120.891221
9.2                  0.937463136     -121.127331
9.201                 0.93732979     -121.363995
9.202                0.937196436     -121.601211
9.203                0.937063078      -121.83898
9.204                0.936929721     -122.077302
9.205                0.936796368     -122.316176
9.206                0.936663024     -122.555603
9.207                0.936529693     -122.795582
9.208                 0.93639638     -123.036114
9.209                0.936263088     -123.277198
9.21                 0.936129824     -123.518833
9.211                 0.93599659      -123.76102
9.212                0.935863392     -124.003759
9.213                0.935730233     -124.247048
9.214                 0.93559712     -124.490889
9.215                0.935464056      -124.73528
9.216                0.935331046     -124.980222
9.217                0.935198095     -125.225713
9.218                0.935065207     -125.471754
9.219                0.934932388     -125.718345
9.22                 0.934799642     -125.965484
9.221                0.934666974     -126.213172
9.222                0.934534389     -126.461407
9.223                0.934401893      -126.71019
9.224                0.934269489      -126.95952
9.225                0.934137184     -127.209397
9.226                0.934004982     -127.459819
9.227                0.933872888     -127.710787
9.228                0.933740908       -127.9623
9.229                0.933609046     -128.214357
9.23                 0.933477309     -128.466957
9.231                  0.9333457     -128.720101
9.232                0.933214227     -128.973787
9.233                0.933082893     -129.228014
9.234                0.932951704     -129.482782
9.235                0.932820666      -129.73809
9.236                0.932689785     -129.993938
9.237                0.932559065     -130.250324
9.238                0.932428512     -130.507247
9.239                0.932298132     -130.764708
9.24                 0.932167931     -131.022705
9.241                0.932037913     -131.281236
9.242                0.931908085     -131.540302
9.243                0.931778453     -131.799901
9.244                0.931649022     -132.060032
9.245                0.931519798     -132.320695
9.246                0.931390786     -132.581888
9.247                0.931261993      -132.84361
9.248                0.931133425      -133.10586
9.249                0.931005087     -133.368637
9.25                 0.930876985     -133.631939
9.251                0.930749125     -133.895767
9.252                0.930621514     -134.160118
9.253                0.930494157     -134.424991
9.254                 0.93036706     -134.690386
9.255                 0.93024023       -134.9563
9.256                0.930113672     -135.222733
9.257                0.929987393     -135.489683
9.258                0.929861399     -135.757149
9.259                0.929735696     -136.025129
9.26                  0.92961029     -136.293622
9.261                0.929485187     -136.562627
9.262                0.929360394     -136.832142
9.263                0.929235918     -137.102166
9.264                0.929111764     -137.372697
9.265                0.928987938     -137.643734
9.266                0.928864448     -137.915275
9.267                0.928741299     -138.187318
9.268                0.928618498     -138.459862
9.269                0.928496052     -138.732906
9.27                 0.928373966     -139.006447
9.271                0.928252248     -139.280483
9.272                0.928130903     -139.555014
9.273                0.928009939     -139.830037
9.274                0.927889362     -140.105551
9.275                0.927769178     -140.381553
9.276                0.927649394     -140.658042
9.277                0.927530016     -140.935016
9.278                0.927411052     -141.212473
9.279                0.927292508     -141.490411
9.28                  0.92717439     -141.768828
9.281                0.927056705     -142.047723
9.282                 0.92693946     -142.327092
9.283                0.926822662     -142.606934
9.284                0.926706316     -142.887248
9.285                 0.92659043      -143.16803
9.286                0.926475011     -143.449279
9.287                0.926360065     -143.730992
9.288                0.926245598     -144.013167
9.289                0.926131619     -144.295803
9.29                 0.926018133     -144.578896
9.291                0.925905147     -144.862444
9.292                0.925792667     -145.146446
9.293                0.925680702     -145.430899
9.294                0.925569256       -145.7158
9.295                0.925458338     -146.001147
9.296                0.925347954     -146.286937
9.297                 0.92523811     -146.573168
9.298                0.925128813     -146.859838
9.299                0.925020071     -147.146944
9.3                  0.924911889     -147.434484
9.301                0.924804276     -147.722454
9.302                0.924697236     -148.010852
9.303                0.924590777     -148.299677
9.304                0.924484907     -148.588923
9.305                0.924379631     -148.878591
9.306                0.924274956     -149.168675
9.307                0.924170889     -149.459174
9.308                0.924067436     -149.750085
9.309                0.923964605     -150.041406
9.31                 0.923862402     -150.333132
9.311                0.923760834     -150.625262
9.312                0.923659907     -150.917792
9.313                0.923559627     -151.210719
9.314                0.923460003     -151.504041
9.315                0.923361039     -151.797754
9.316                0.923262743     -152.091856
9.317                0.923165122     -152.386343
9.318                0.923068181     -152.681213
9.319                0.922971928     -152.976461
9.32                 0.922876369     -153.272086
9.321                 0.92278151     -153.568083
9.322                0.922687358      -153.86445
9.323                0.922593919     -154.161184
9.324                0.922501199     -154.458281
9.325                0.922409206     -154.755738
9.326                0.922317945     -155.053551
9.327                0.922227422     -155.351717
9.328                0.922137645     -155.650234
9.329                0.922048619     -155.949097
9.33                  0.92196035     -156.248303
9.331                0.921872845     -156.547848
9.332                 0.92178611      -156.84773
9.333                0.921700151     -157.147944
9.334                0.921614973     -157.448488
9.335                0.921530584     -157.749357
9.336                0.921446989     -158.050548
9.337                0.921364194     -158.352058
9.338                0.921282205     -158.653883
9.339                0.921201027     -158.956018
9.34                 0.921120668     -159.258461
9.341                0.921041132     -159.561208
9.342                0.920962425     -159.864255
9.343                0.920884554     -160.167598
9.344                0.920807523     -160.471234
9.345                0.920731338     -160.775159
9.346                0.920656005     -161.079368
9.347                 0.92058153     -161.383859
9.348                0.920507917     -161.688627
9.349                0.920435173     -161.993668
9.35                 0.920363303     -162.298978
9.351                0.920292311     -162.604555
9.352                0.920222204     -162.910392
9.353                0.920152986     -163.216487
9.354                0.920084663     -163.522836
9.355                0.920017239     -163.829434
9.356                 0.91995072     -164.136278
9.357                0.919885111     -164.443364
9.358                0.919820416     -164.750686
9.359                0.919756641     -165.058242
9.36                 0.919693791     -165.366027
9.361                0.919631869     -165.674037
9.362                0.919570881     -165.982268
9.363                0.919510831     -166.290716
9.364                0.919451723     -166.599376
9.365                0.919393564     -166.908245
9.366                0.919336355     -167.217317
9.367                0.919280103     -167.526589
9.368                0.919224811     -167.836057
9.369                0.919170484     -168.145716
9.37                 0.919117125     -168.455562
9.371                0.919064738     -168.765591
9.372                0.919013329     -169.075798
9.373                0.918962899     -169.386179
9.374                0.918913455      -169.69673
9.375                0.918864998     -170.007445
9.376                0.918817533     -170.318322
9.377                0.918771063     -170.629355
9.378                0.918725593      -170.94054
9.379                0.918681125     -171.251873
9.38                 0.918637662     -171.563349
9.381                0.918595209     -171.874963
9.382                0.918553768     -172.186712
9.383                0.918513342      -172.49859
9.384                0.918473935     -172.810594
9.385                0.918435549     -173.122718
9.386                0.918398188     -173.434959
9.387                0.918361853     -173.747312
9.388                0.918326549     -174.059771
9.389                0.918292277     -174.372333
9.39                 0.918259041     -174.684994
9.391                0.918226842     -174.997748
9.392                0.918195683      -175.31059
9.393                0.918165566     -175.623517
9.394                0.918136494     -175.936524
9.395                0.918108468     -176.249607
9.396                0.918081491     -176.562759
9.397                0.918055565     -176.875978
9.398                0.918030692     -177.189258
9.399                0.918006873     -177.502595
9.4                  0.917984109     -177.815984
9.401                0.917962404     -178.129421
9.402                0.917941758     -178.442901
9.403                0.917922172     -178.756418
9.404                0.917903648      -179.06997
9.405                0.917886188      -179.38355
9.406                0.917869792     -179.697155
9.407                0.917854461       179.98922
9.408                0.917840197      179.675581
9.409                   0.917827      179.361931
9.41                 0.917814871      179.048275
9.411                0.917803812      178.734618
9.412                0.917793822      178.420965
9.413                0.917784901       178.10732
9.414                0.917777052      177.793687
9.415                0.917770273      177.480072
9.416                0.917764565      177.166479
9.417                0.917759929      176.852913
9.418                0.917756364      176.539379
9.419                 0.91775387       176.22588
9.42                 0.917752448      175.912422
9.421                0.917752097      175.599009
9.422                0.917752816      175.285647
9.423                0.917754606      174.972338
9.424                0.917757466      174.659089
9.425                0.917761395      174.345904
9.426                0.917766394      174.032787
9.427                 0.91777246      173.719743
9.428                0.917779593      173.406776
9.429                0.917787793      173.093892
9.43                 0.917797058      172.781094
9.431                0.917807387      172.468388
9.432                0.917818779      172.155777
9.433                0.917831233      171.843267
9.434                0.917844748      171.530862
9.435                0.917859321      171.218567
9.436                0.917874952      170.906385
9.437                0.917891639      170.594322
9.438                 0.91790938      170.282382
9.439                0.917928173      169.970569
9.44                 0.917948017      169.658888
9.441                0.917968909      169.347344
9.442                0.917990848      169.035941
9.443                0.918013831      168.724683
9.444                0.918037856      168.413575
9.445                0.918062921      168.102621
9.446                0.918089023      167.791826
9.447                0.918116161      167.481194
9.448                0.918144331      167.170729
9.449                 0.91817353      166.860436
9.45                 0.918203757      166.550319
9.451                0.918235008      166.240382
9.452                0.918267281      165.930631
9.453                0.918300572      165.621068
9.454                0.918334879      165.311699
9.455                0.918370198      165.002527
9.456                0.918406526      164.693557
9.457                 0.91844386      164.384793
9.458                0.918482197       164.07624
9.459                0.918521533      163.767901
9.46                 0.918561865       163.45978
9.461                0.918603189      163.151883
9.462                0.918645502      162.844212
9.463                  0.9186888      162.536773
9.464                0.918733078      162.229569
9.465                0.918778334      161.922604
9.466                0.918824564      161.615882
9.467                0.918871762      161.309408
9.468                0.918919926      161.003186
9.469                0.918969052      160.697218
9.47                 0.919019134       160.39151
9.471                0.919070169      160.086066
9.472                0.919122153      159.780888
9.473                0.919175081      159.475982
9.474                0.919228949      159.171351
9.475                0.919283752      158.866999
9.476                0.919339485       158.56293
9.477                0.919396145      158.259147
9.478                0.919453726      157.955655
9.479                0.919512224      157.652457
9.48                 0.919571633      157.349557
9.481                 0.91963195      157.046958
9.482                0.919693168      156.744665
9.483                0.919755284      156.442681
9.484                0.919818292      156.141009
9.485                0.919882187      155.839654
9.486                0.919946964      155.538619
9.487                0.920012618      155.237908
9.488                0.920079144      154.937523
9.489                0.920146536      154.637469
9.49                 0.920214788      154.337749
9.491                0.920283897      154.038367
9.492                0.920353855      153.739325
9.493                0.920424659      153.440628
9.494                0.920496302      153.142279
9.495                0.920568778      152.844281
9.496                0.920642083      152.546637
9.497                0.920716211      152.249352
9.498                0.920791155      151.952427
9.499                 0.92086691      151.655867
9.5                  0.920943471      151.359674
9.501                0.921020832      151.063852
9.502                0.921098987      150.768404
9.503                0.921177929      150.473334
9.504                0.921257654      150.178643
9.505                0.921338155      149.884336
9.506                0.921419427      149.590415
9.507                0.921501463      149.296884
9.508                0.921584257      149.003745
9.509                0.921667803      148.711001
9.51                 0.921752096      148.418656
9.511                0.921837129      148.126712
9.512                0.921922896      147.835172
9.513                0.922009391       147.54404
9.514                0.922096607      147.253317
9.515                 0.92218454      146.963006
9.516                0.922273181      146.673111
9.517                0.922362526      146.383635
9.518                0.922452568      146.094579
9.519                  0.9225433      145.805946
9.52                 0.922634716       145.51774
9.521                0.922726811      145.229963
9.522                0.922819577      144.942617
9.523                0.922913009      144.655706
9.524                  0.9230071       144.36923
9.525                0.923101843      144.083194
9.526                0.923197232      143.797599
9.527                0.923293262      143.512449
9.528                0.923389925      143.227744
9.529                0.923487215      142.943489
9.53                 0.923585125      142.659685
9.531                 0.92368365      142.376334
9.532                0.923782783      142.093438
9.533                0.923882517      141.811001
9.534                0.923982846      141.529025
9.535                0.924083763       141.24751
9.536                0.924185263      140.966461
9.537                0.924287338      140.685878
9.538                0.924389982      140.405764
9.539                0.924493188      140.126121
9.54                 0.924596951      139.846951
9.541                0.924701264      139.568257
9.542                0.924806119      139.290039
9.543                0.924911512      139.012301
9.544                0.925017435      138.735044
9.545                0.925123881       138.45827
9.546                0.925230845       138.18198
9.547                0.925338321      137.906178
9.548                  0.9254463      137.630864
9.549                0.925554778       137.35604
9.55                 0.925663747      137.081708
9.551                0.925773202      136.807871
9.552                0.925883136      136.534528
9.553                0.925993542      136.261684
9.554                0.926104414      135.989338
9.555                0.926215746      135.717492
9.556                0.926327531      135.446149
9.557                0.926439763      135.175309
9.558                0.926552436      134.904975
9.559                0.926665543      134.635148
9.56                 0.926779079      134.365829
9.561                0.926893036      134.097019
9.562                0.927007408      133.828721
9.563                 0.92712219      133.560935
9.564                0.927237374      133.293663
9.565                0.927352956      133.026907
9.566                0.927468927      132.760667
9.567                0.927585283      132.494945
9.568                0.927702018      132.229742
9.569                0.927819124       131.96506
9.57                 0.927936596      131.700899
9.571                0.928054428      131.437261
9.572                0.928172613      131.174147
9.573                0.928291146      130.911558
9.574                0.928410021      130.649495
9.575                0.928529231      130.387959
9.576                 0.92864877      130.126952
9.577                0.928768633      129.866474
9.578                0.928888814      129.606527
9.579                0.929009306       129.34711
9.58                 0.929130104      129.088226
9.581                0.929251202      128.829876
9.582                0.929372594      128.572059
9.583                0.929494274      128.314777
9.584                0.929616236      128.058031
9.585                0.929738475      127.801822
9.586                0.929860985       127.54615
9.587                 0.92998376      127.291016
9.588                0.930106794      127.036422
9.589                0.930230083      126.782367
9.59                 0.930353619      126.528852
9.591                0.930477398      126.275878
9.592                0.930601414      126.023446
9.593                0.930725661      125.771557
9.594                0.930850135       125.52021
9.595                0.930974828      125.269407
9.596                0.931099737      125.019148
9.597                0.931224856      124.769433
9.598                0.931350178      124.520264
9.599                  0.9314757       124.27164
9.6                  0.931601415      124.023563
9.601                0.931727318      123.776032