! TOUCHSTONE file generated by CST DESIGN STUDIO
! Date and time: Tue Feb  4 14:09:23 2025
! Project name: C:\Work\MatlabApps\UnitCellOptimizationMatlab\CST\unitcell.cst
! Tree item: Tasks\Sweep1\SPara1\S-Parameters
! Header version: 2024
! Port assignment regex: !\s*Touchstone port\s*([0-9]+)\s*=\s*(CST MWS port|CST DES external port|CST DES block port)\s*(.+)\s* \(\"(.*)\"\)(\s*mode\s*([0-9]+))?.*
! Touchstone port assignment:
! Touchstone port 1 = CST DES external port 1 ("")
# GHz S MA R 50
9                    0.980107781     -81.6407714
9.001                0.980055929     -81.7711472
9.002                0.980003923     -81.9018547
9.003                0.979951765      -82.032895
9.004                0.979899452     -82.1642689
9.005                0.979846986     -82.2959774
9.006                0.979794366     -82.4280215
9.007                0.979741591     -82.5604022
9.008                0.979688662     -82.6931205
9.009                0.979635577     -82.8261772
9.01                 0.979582338     -82.9595734
9.011                0.979528944       -83.09331
9.012                0.979475394     -83.2273881
9.013                0.979421688     -83.3618085
9.014                0.979367826     -83.4965724
9.015                0.979313808     -83.6316806
9.016                0.979259633     -83.7671341
9.017                0.979205302     -83.9029339
9.018                0.979150813      -84.039081
9.019                0.979096168     -84.1755764
9.02                 0.979041365     -84.3124211
9.021                0.978986405      -84.449616
9.022                0.978931287     -84.5871621
9.023                0.978876011     -84.7250605
9.024                0.978820577      -84.863312
9.025                0.978764985     -85.0019178
9.026                0.978709234     -85.1408788
9.027                0.978653324      -85.280196
9.028                0.978597256     -85.4198703
9.029                0.978541028     -85.5599029
9.03                 0.978484641     -85.7002946
9.031                0.978428095     -85.8410465
9.032                 0.97837139     -85.9821595
9.033                0.978314524     -86.1236348
9.034                0.978257499     -86.2654732
9.035                0.978200314     -86.4076758
9.036                0.978142968     -86.5502435
9.037                0.978085463     -86.6931775
9.038                0.978027796     -86.8364786
9.039                 0.97796997     -86.9801479
9.04                 0.977911982     -87.1241864
9.041                0.977853834     -87.2685951
9.042                0.977795525      -87.413375
9.043                0.977737055     -87.5585271
9.044                0.977678424     -87.7040524
9.045                0.977619631     -87.8499519
9.046                0.977560677     -87.9962267
9.047                0.977501562     -88.1428777
9.048                0.977442285      -88.289906
9.049                0.977382846     -88.4373126
9.05                 0.977323246     -88.5850984
9.051                0.977263484     -88.7332645
9.052                0.977203561     -88.8818119
9.053                0.977143475     -89.0307416
9.054                0.977083228     -89.1800546
9.055                0.977022818      -89.329752
9.056                0.976962247     -89.4798347
9.057                0.976901513     -89.6303038
9.058                0.976840618     -89.7811602
9.059                 0.97677956      -89.932405
9.06                  0.97671834     -90.0840392
9.061                0.976656958     -90.2360638
9.062                0.976595414     -90.3884799
9.063                0.976533708     -90.5412884
9.064                 0.97647184     -90.6944903
9.065                 0.97640981     -90.8480866
9.066                0.976347618     -91.0020785
9.067                0.976285263     -91.1564668
9.068                0.976222747     -91.3112526
9.069                0.976160068     -91.4664369
9.07                 0.976097228     -91.6220207
9.071                0.976034226      -91.778005
9.072                0.975971062     -91.9343909
9.073                0.975907737     -92.0911793
9.074                 0.97584425     -92.2483713
9.075                0.975780601     -92.4059678
9.076                0.975716791     -92.5639698
9.077                 0.97565282     -92.7223785
9.078                0.975588687     -92.8811947
9.079                0.975524393     -93.0404195
9.08                 0.975459939     -93.2000538
9.081                0.975395323     -93.3600988
9.082                0.975330547     -93.5205553
9.083                 0.97526561     -93.6814244
9.084                0.975200513     -93.8427071
9.085                0.975135256     -94.0044044
9.086                0.975069839     -94.1665172
9.087                0.975004262     -94.3290467
9.088                0.974938525     -94.4919937
9.089                0.974872629     -94.6553592
9.09                 0.974806574     -94.8191443
9.091                0.974740359       -94.98335
9.092                0.974673986     -95.1479772
9.093                0.974607454     -95.3130269
9.094                0.974540765     -95.4785001
9.095                0.974473917     -95.6443977
9.096                0.974406911     -95.8107209
9.097                0.974339748     -95.9774705
9.098                0.974272428     -96.1446475
9.099                0.974204951     -96.3122529
9.1                  0.974137317     -96.4802877
9.101                0.974069527     -96.6487528
9.102                0.974001581     -96.8176492
9.103                 0.97393348     -96.9869779
9.104                0.973865223     -97.1567398
9.105                0.973796812      -97.326936
9.106                0.973728246     -97.4975673
9.107                0.973659526     -97.6686347
9.108                0.973590653     -97.8401392
9.109                0.973521626     -98.0120817
9.11                 0.973452446     -98.1844631
9.111                0.973383114     -98.3572845
9.112                0.973313629     -98.5305468
9.113                0.973243994     -98.7042508
9.114                0.973174207     -98.8783976
9.115                0.973104269      -99.052988
9.116                0.973034182     -99.2280231
9.117                0.972963945     -99.4035037
9.118                0.972893558     -99.5794307
9.119                0.972823023      -99.755805
9.12                  0.97275234     -99.9326277
9.121                 0.97268151       -100.1099
9.122                0.972610532     -100.287622
9.123                0.972539409     -100.465795
9.124                0.972468139     -100.644419
9.125                0.972396724     -100.823497
9.126                0.972325165     -101.003029
9.127                0.972253461     -101.183014
9.128                0.972181615     -101.363456
9.129                0.972109625     -101.544354
9.13                 0.972037494     -101.725709
9.131                0.971965221     -101.907522
9.132                0.971892808     -102.089794
9.133                0.971820254     -102.272526
9.134                0.971747562     -102.455719
9.135                0.971674731     -102.639373
9.136                0.971601762      -102.82349
9.137                0.971528656     -103.008069
9.138                0.971455414     -103.193113
9.139                0.971382037     -103.378622
9.14                 0.971308525     -103.564597
9.141                0.971234879     -103.751038
9.142                0.971161101     -103.937946
9.143                 0.97108719     -104.125323
9.144                0.971013148     -104.313169
9.145                0.970938975     -104.501484
9.146                0.970864674      -104.69027
9.147                0.970790243     -104.879527
9.148                0.970715685     -105.069257
9.149                   0.970641     -105.259459
9.15                  0.97056619     -105.450136
9.151                0.970491255     -105.641286
9.152                0.970416196     -105.832912
9.153                0.970341014     -106.025014
9.154                 0.97026571     -106.217592
9.155                0.970190286     -106.410648
9.156                0.970114742     -106.604182
9.157                 0.97003908     -106.798195
9.158                  0.9699633     -106.992688
9.159                0.969887404     -107.187661
9.16                 0.969811392     -107.383115
9.161                0.969735266      -107.57905
9.162                0.969659028     -107.775468
9.163                0.969582677     -107.972369
9.164                0.969506216     -108.169754
9.165                0.969429645     -108.367623
9.166                0.969352967     -108.565978
9.167                0.969276181     -108.764817
9.168                 0.96919929     -108.964144
9.169                0.969122294     -109.163957
9.17                 0.969045195     -109.364258
9.171                0.968967995     -109.565047
9.172                0.968890694     -109.766325
9.173                0.968813293     -109.968092
9.174                0.968735796     -110.170349
9.175                0.968658201     -110.373097
9.176                0.968580512     -110.576336
9.177                0.968502729     -110.780066
9.178                0.968424855     -110.984289
9.179                0.968346889     -111.189004
9.18                 0.968268835     -111.394213
9.181                0.968190693     -111.599916
9.182                0.968112464     -111.806113
9.183                0.968034152     -112.012804
9.184                0.967955756     -112.219991
9.185                0.967877278     -112.427674
9.186                0.967798721     -112.635853
9.187                0.967720086     -112.844529
9.188                0.967641374     -113.053702
9.189                0.967562587     -113.263372
9.19                 0.967483727     -113.473541
9.191                0.967404796     -113.684208
9.192                0.967325794     -113.895373
9.193                0.967246725     -114.107038
9.194                0.967167589     -114.319203
9.195                0.967088388     -114.531867
9.196                0.967009125     -114.745032
9.197                0.966929801     -114.958698
9.198                0.966850418     -115.172864
9.199                0.966770977     -115.387532
9.2                  0.966691481     -115.602701
9.201                0.966611932     -115.818373
9.202                0.966532331     -116.034546
9.203                 0.96645268     -116.251222
9.204                0.966372982     -116.468401
9.205                0.966293238     -116.686082
9.206                 0.96621345     -116.904267
9.207                0.966133621     -117.122955
9.208                0.966053752     -117.342147
9.209                0.965973846     -117.561843
9.21                 0.965893904     -117.782043
9.211                0.965813929     -118.002746
9.212                0.965733922     -118.223954
9.213                0.965653887     -118.445667
9.214                0.965573825     -118.667884
9.215                0.965493738     -118.890606
9.216                0.965413628     -119.113832
9.217                0.965333498     -119.337563
9.218                0.965253351     -119.561799
9.219                0.965173187      -119.78654
9.22                  0.96509301     -120.011786
9.221                0.965012822     -120.237537
9.222                0.964932625     -120.463793
9.223                0.964852422     -120.690554
9.224                0.964772215      -120.91782
9.225                0.964692007     -121.145591
9.226                0.964611799     -121.373866
9.227                0.964531594     -121.602647
9.228                0.964451395     -121.831932
9.229                0.964371205     -122.061721
9.23                 0.964291025     -122.292015
9.231                0.964210858     -122.522813
9.232                0.964130707     -122.754116
9.233                0.964050575     -122.985922
9.234                0.963970464     -123.218232
9.235                0.963890376     -123.451045
9.236                0.963810315     -123.684362
9.237                0.963730282     -123.918182
9.238                0.963650281     -124.152505
9.239                0.963570315      -124.38733
9.24                 0.963490385     -124.622657
9.241                0.963410495     -124.858487
9.242                0.963330648     -125.094818
9.243                0.963250846      -125.33165
9.244                0.963171092     -125.568983
9.245                0.963091389     -125.806816
9.246                 0.96301174     -126.045149
9.247                0.962932148     -126.283982
9.248                0.962852615     -126.523315
9.249                0.962773144     -126.763146
9.25                 0.962693739     -127.003475
9.251                0.962614403     -127.244302
9.252                0.962535137     -127.485626
9.253                0.962455946     -127.727446
9.254                0.962376832     -127.969763
9.255                0.962297799     -128.212575
9.256                0.962218848     -128.455882
9.257                0.962139984     -128.699684
9.258                 0.96206121     -128.943979
9.259                0.961982528     -129.188767
9.26                 0.961903942     -129.434047
9.261                0.961825455     -129.679819
9.262                 0.96174707     -129.926082
9.263                 0.96166879     -130.172835
9.264                0.961590618     -130.420077
9.265                0.961512558     -130.667808
9.266                0.961434613     -130.916027
9.267                0.961356786     -131.164732
9.268                 0.96127908     -131.413924
9.269                0.961201499       -131.6636
9.27                 0.961124045     -131.913761
9.271                0.961046723     -132.164406
9.272                0.960969536     -132.415533
9.273                0.960892486     -132.667141
9.274                0.960815577      -132.91923
9.275                0.960738814     -133.171798
9.276                0.960662198     -133.424845
9.277                0.960585733      -133.67837
9.278                0.960509424      -133.93237
9.279                0.960433273     -134.186846
9.28                 0.960357283     -134.441796
9.281                0.960281459     -134.697219
9.282                0.960205803     -134.953114
9.283                 0.96013032      -135.20948
9.284                0.960055012     -135.466315
9.285                0.959979884     -135.723618
9.286                0.959904938     -135.981389
9.287                0.959830179     -136.239624
9.288                 0.95975561     -136.498325
9.289                0.959681234     -136.757488
9.29                 0.959607055     -137.017113
9.291                0.959533076     -137.277199
9.292                0.959459302     -137.537743
9.293                0.959385736     -137.798745
9.294                0.959312382     -138.060203
9.295                0.959239242     -138.322116
9.296                0.959166322     -138.584482
9.297                0.959093623     -138.847299
9.298                0.959021151     -139.110567
9.299                0.958948909     -139.374283
9.3                    0.9588769     -139.638446
9.301                0.958805129     -139.903054
9.302                0.958733598     -140.168106
9.303                0.958662312       -140.4336
9.304                0.958591274     -140.699535
9.305                0.958520489     -140.965908
9.306                0.958449959     -141.232718
9.307                0.958379689     -141.499963
9.308                0.958309682     -141.767642
9.309                0.958239942     -142.035752
9.31                 0.958170473     -142.304291
9.311                0.958101278     -142.573259
9.312                0.958032361     -142.842653
9.313                0.957963727     -143.112471
9.314                0.957895379     -143.382711
9.315                 0.95782732     -143.653371
9.316                0.957759554     -143.924449
9.317                0.957692086     -144.195944
9.318                0.957624919     -144.467853
9.319                0.957558056     -144.740174
9.32                 0.957491502     -145.012905
9.321                 0.95742526     -145.286044
9.322                0.957359334     -145.559589
9.323                0.957293728     -145.833538
9.324                0.957228445     -146.107888
9.325                 0.95716349     -146.382638
9.326                0.957098866     -146.657784
9.327                0.957034577     -146.933326
9.328                0.956970627      -147.20926
9.329                0.956907019     -147.485584
9.33                 0.956843757     -147.762297
9.331                0.956780845     -148.039395
9.332                0.956718287     -148.316876
9.333                0.956656087     -148.594738
9.334                0.956594247     -148.872979
9.335                0.956532772     -149.151595
9.336                0.956471667     -149.430585
9.337                0.956410933     -149.709946
9.338                0.956350575     -149.989675
9.339                0.956290598     -150.269771
9.34                 0.956231003      -150.55023
9.341                0.956171796     -150.831049
9.342                 0.95611298     -151.112227
9.343                0.956054558     -151.393761
9.344                0.955996534     -151.675647
9.345                0.955938911     -151.957883
9.346                0.955881695     -152.240467
9.347                0.955824887     -152.523396
9.348                0.955768491     -152.806667
9.349                0.955712512     -153.090277
9.35                 0.955656952     -153.374223
9.351                0.955601816     -153.658503
9.352                0.955547107     -153.943114
9.353                0.955492827     -154.228053
9.354                0.955438982     -154.513317
9.355                0.955385574     -154.798903
9.356                0.955332607     -155.084807
9.357                0.955280084     -155.371029
9.358                0.955228008     -155.657563
9.359                0.955176384     -155.944407
9.36                 0.955125214     -156.231559
9.361                0.955074502     -156.519015
9.362                0.955024251     -156.806772
9.363                0.954974464     -157.094827
9.364                0.954925146     -157.383176
9.365                0.954876298     -157.671818
9.366                0.954827925     -157.960748
9.367                 0.95478003     -158.249963
9.368                0.954732615      -158.53946
9.369                0.954685685     -158.829237
9.37                 0.954639241     -159.119289
9.371                0.954593288     -159.409614
9.372                0.954547828     -159.700208
9.373                0.954502865     -159.991067
9.374                0.954458401      -160.28219
9.375                 0.95441444     -160.573571
9.376                0.954370985     -160.865209
9.377                0.954328038     -161.157099
9.378                0.954285603     -161.449238
9.379                0.954243682     -161.741622
9.38                 0.954202279     -162.034249
9.381                0.954161396     -162.327115
9.382                0.954121035     -162.620216
9.383                0.954081201     -162.913549
9.384                0.954041895     -163.207111
9.385                 0.95400312     -163.500897
9.386                 0.95396488     -163.794904
9.387                0.953927176      -164.08913
9.388                0.953890011     -164.383569
9.389                0.953853388     -164.678219
9.39                  0.95381731     -164.973076
9.391                0.953781778     -165.268137
9.392                0.953746796     -165.563397
9.393                0.953712366     -165.858853
9.394                 0.95367849     -166.154501
9.395                0.953645171     -166.450339
9.396                0.953612411     -166.746361
9.397                0.953580212     -167.042565
9.398                0.953548576     -167.338946
9.399                0.953517507     -167.635501
9.4                  0.953487005     -167.932226
9.401                0.953457073     -168.229118
9.402                0.953427714     -168.526172
9.403                0.953398929     -168.823384
9.404                 0.95337072     -169.120752
9.405                0.953343089     -169.418271
9.406                0.953316039     -169.715937
9.407                 0.95328957     -170.013747
9.408                0.953263686     -170.311696
9.409                0.953238387     -170.609781
9.41                 0.953213676     -170.907998
9.411                0.953189554     -171.206343
9.412                0.953166023     -171.504812
9.413                0.953143084     -171.803402
9.414                 0.95312074     -172.102107
9.415                0.953098991     -172.400925
9.416                0.953077839     -172.699851
9.417                0.953057286     -172.998882
9.418                0.953037333     -173.298013
9.419                0.953017982     -173.597241
9.42                 0.952999233     -173.896562
9.421                0.952981088     -174.195971
9.422                0.952963549     -174.495465
9.423                0.952946616     -174.795039
9.424                 0.95293029      -175.09469
9.425                0.952914573     -175.394414
9.426                0.952899466     -175.694207
9.427                0.952884969     -175.994064
9.428                0.952871084     -176.293982
9.429                0.952857812     -176.593956
9.43                 0.952845153     -176.893983
9.431                0.952833108     -177.194059
9.432                0.952821677     -177.494179
9.433                0.952810863     -177.794339
9.434                0.952800664     -178.094536
9.435                0.952791083     -178.394766
9.436                0.952782119     -178.695024
9.437                0.952773773     -178.995306
9.438                0.952766045     -179.295608
9.439                0.952758936     -179.595927
9.44                 0.952752446     -179.896257
9.441                0.952746576      179.803404
9.442                0.952741325      179.503061
9.443                0.952736694      179.202718
9.444                0.952732683      178.902379
9.445                0.952729293      178.602049
9.446                0.952726523       178.30173
9.447                0.952724373      178.001428
9.448                0.952722843      177.701146
9.449                0.952721934      177.400889
9.45                 0.952721644       177.10066
9.451                0.952721974      176.800463
9.452                0.952722924      176.500303
9.453                0.952724494      176.200183
9.454                0.952726682      175.900108
9.455                0.952729489      175.600082
9.456                0.952732914      175.300108
9.457                0.952736957      175.000191
9.458                0.952741617      174.700334
9.459                0.952746894      174.400543
9.46                 0.952752786      174.100819
9.461                0.952759295      173.801169
9.462                0.952766417      173.501595
9.463                0.952774154      173.202103
9.464                0.952782503      172.902694
9.465                0.952791465      172.603375
9.466                0.952801038      172.304148
9.467                0.952811221      172.005018
9.468                0.952822014      171.705988
9.469                0.952833415      171.407063
9.47                 0.952845423      171.108246
9.471                0.952858037      170.809542
9.472                0.952871256      170.510954
9.473                0.952885078      170.212486
9.474                0.952899503      169.914143
9.475                0.952914529      169.615927
9.476                0.952930154      169.317844
9.477                0.952946377      169.019896
9.478                0.952963198      168.722088
9.479                0.952980613      168.424423
9.48                 0.952998622      168.126906
9.481                0.953017223       167.82954
9.482                0.953036415      167.532329
9.483                0.953056196      167.235277
9.484                0.953076563      166.938387
9.485                0.953097516      166.641664
9.486                0.953119052      166.345111
9.487                 0.95314117      166.048731
9.488                0.953163867       165.75253
9.489                0.953187143       165.45651
9.49                 0.953210994      165.160675
9.491                0.953235419      164.865028
9.492                0.953260415      164.569574
9.493                0.953285982      164.274316
9.494                0.953312116      163.979258
9.495                0.953338815      163.684404
9.496                0.953366077      163.389756
9.497                0.953393901      163.095319
9.498                0.953422283      162.801096
9.499                0.953451221      162.507092
9.5                  0.953480713      162.213308
9.501                0.953510757      161.919749
9.502                 0.95354135      161.626419
9.503                 0.95357249      161.333321
9.504                0.953604173      161.040457
9.505                0.953636399      160.747833
9.506                0.953669163      160.455452
9.507                0.953702464      160.163315
9.508                0.953736299      159.871429
9.509                0.953770665      159.579794
9.51                  0.95380556      159.288416
9.511                 0.95384098      158.997297
9.512                0.953876923       158.70644
9.513                0.953913387      158.415849
9.514                0.953950367      158.125528
9.515                0.953987863      157.835479
9.516                 0.95402587      157.545706
9.517                0.954064386      157.256212
9.518                0.954103407         156.967
9.519                0.954142932      156.678074
9.52                 0.954182956      156.389436
9.521                0.954223477       156.10109
9.522                0.954264492      155.813039
9.523                0.954305998      155.525286
9.524                0.954347992      155.237834
9.525                 0.95439047      154.950686
9.526                0.954433429      154.663846
9.527                0.954476867      154.377315
9.528                 0.95452078      154.091098
9.529                0.954565164      153.805197
9.53                 0.954610018      153.519616
9.531                0.954655336      153.234356
9.532                0.954701117      152.949422
9.533                0.954747357      152.664815
9.534                0.954794052       152.38054
9.535                0.954841199      152.096597
9.536                0.954888795      151.812992
9.537                0.954936837      151.529726
9.538                 0.95498532      151.246801
9.539                0.955034242      150.964222
9.54                   0.9550836       150.68199
9.541                0.955133389      150.400109
9.542                0.955183607       150.11858
9.543                 0.95523425      149.837407
9.544                0.955285314      149.556592
9.545                0.955336796      149.276138
9.546                0.955388692      148.996048
9.547                   0.955441      148.716323
9.548                0.955493714      148.436967
9.549                0.955546833      148.157982
9.55                 0.955600352      147.879371
9.551                0.955654268      147.601136
9.552                0.955708576      147.323279
9.553                0.955763275      147.045803
9.554                0.955818359      146.768711
9.555                0.955873826      146.492004
9.556                0.955929671      146.215685
9.557                0.955985892      145.939756
9.558                0.956042484       145.66422
9.559                0.956099444      145.389079
9.56                 0.956156768      145.114335
9.561                0.956214453      144.839991
9.562                0.956272495      144.566048
9.563                 0.95633089      144.292509
9.564                0.956389635      144.019376
9.565                0.956448726       143.74665
9.566                0.956508159      143.474335
9.567                0.956567931      143.202433
9.568                0.956628037      142.930944
9.569                0.956688475      142.659872
9.57                 0.956749241      142.389218
9.571                 0.95681033      142.118984
9.572                 0.95687174      141.849172
9.573                0.956933466      141.579785
9.574                0.956995506      141.310824
9.575                0.957057854       141.04229
9.576                0.957120508      140.774187
9.577                0.957183464      140.506515
9.578                0.957246719      140.239276
9.579                0.957310267      139.972473
9.58                 0.957374107      139.706106
9.581                0.957438234      139.440179
9.582                0.957502644      139.174691
9.583                0.957567334      138.909646
9.584                0.957632301      138.645045
9.585                 0.95769754      138.380889
9.586                0.957763048      138.117179
9.587                0.957828821      137.853919
9.588                0.957894856      137.591108
9.589                0.957961149       137.32875
9.59                 0.958027697      137.066844
9.591                0.958094495      136.805393
9.592                0.958161541      136.544399
9.593                 0.95822883      136.283861
9.594                0.958296359      136.023783
9.595                0.958364125      135.764165
9.596                0.958432124      135.505009
9.597                0.958500352      135.246317
9.598                0.958568805      134.988088
9.599                0.958637481      134.730325
9.6                  0.958706376       134.47303
9.601                0.958775486      134.216202