! TOUCHSTONE file generated by CST DESIGN STUDIO
! Date and time: Wed Feb  5 13:42:13 2025
! Project name: C:\Work\MatlabApps\UnitCellOptimizationMatlab\CST\unitcell.cst
! Tree item: Tasks\Sweep1\SPara1\S-Parameters
! Header version: 2024
! Port assignment regex: !\s*Touchstone port\s*([0-9]+)\s*=\s*(CST MWS port|CST DES external port|CST DES block port)\s*(.+)\s* \(\"(.*)\"\)(\s*mode\s*([0-9]+))?.*
! Touchstone port assignment:
! Touchstone port 1 = CST DES external port 1 ("")
# GHz S MA R 50
9                    0.967724883     -81.8837355
9.001                0.967640077     -82.0157738
9.002                0.967555018     -82.1481515
9.003                0.967469705     -82.2808696
9.004                0.967384139     -82.4139291
9.005                0.967298317      -82.547331
9.006                0.967212241     -82.6810763
9.007                0.967125909     -82.8151659
9.008                0.967039322      -82.949601
9.009                0.966952479     -83.0843824
9.01                 0.966865379     -83.2195112
9.011                0.966778022     -83.3549884
9.012                0.966690408      -83.490815
9.013                0.966602537      -83.626992
9.014                0.966514407     -83.7635205
9.015                 0.96642602     -83.9004013
9.016                0.966337373     -84.0376356
9.017                0.966248468     -84.1752244
9.018                0.966159304     -84.3131686
9.019                0.966069879     -84.4514692
9.02                 0.965980195     -84.5901274
9.021                0.965890251     -84.7291441
9.022                0.965800046     -84.8685204
9.023                 0.96570958     -85.0082572
9.024                0.965618853     -85.1483556
9.025                0.965527864     -85.2888165
9.026                0.965436614     -85.4296412
9.027                0.965345101     -85.5708304
9.028                0.965253327     -85.7123854
9.029                0.965161289      -85.854307
9.03                 0.965068989     -85.9965964
9.031                0.964976426     -86.1392546
9.032                  0.9648836     -86.2822825
9.033                0.964790509     -86.4256813
9.034                0.964697155      -86.569452
9.035                0.964603538     -86.7135955
9.036                0.964509655      -86.858113
9.037                0.964415509     -87.0030055
9.038                0.964321098     -87.1482739
9.039                0.964226421     -87.2939194
9.04                  0.96413148      -87.439943
9.041                0.964036274     -87.5863457
9.042                0.963940803     -87.7331286
9.043                0.963845066     -87.8802926
9.044                0.963749063     -88.0278389
9.045                0.963652795     -88.1757685
9.046                 0.96355626     -88.3240823
9.047                 0.96345946     -88.4727816
9.048                0.963362393     -88.6218672
9.049                0.963265061     -88.7713403
9.05                 0.963167462     -88.9212019
9.051                0.963069596      -89.071453
9.052                0.962971464     -89.2220947
9.053                0.962873066      -89.373128
9.054                0.962774401      -89.524554
9.055                0.962675469     -89.6763737
9.056                0.962576271     -89.8285881
9.057                0.962476806     -89.9811984
9.058                0.962377074     -90.1342055
9.059                0.962277076     -90.2876105
9.06                 0.962176811     -90.4414144
9.061                0.962076279     -90.5956183
9.062                 0.96197548     -90.7502232
9.063                0.961874416     -90.9052302
9.064                0.961773084     -91.0606403
9.065                0.961671486     -91.2164545
9.066                0.961569622      -91.372674
9.067                0.961467491     -91.5292997
9.068                0.961365094     -91.6863327
9.069                0.961262432      -91.843774
9.07                 0.961159503     -92.0016247
9.071                0.961056308     -92.1598858
9.072                0.960952848     -92.3185583
9.073                0.960849122     -92.4776434
9.074                0.960745131      -92.637142
9.075                0.960640875     -92.7970551
9.076                0.960536354     -92.9573839
9.077                0.960431568     -93.1181293
9.078                0.960326518     -93.2792924
9.079                0.960221204     -93.4408743
9.08                 0.960115625     -93.6028758
9.081                0.960009783     -93.7652982
9.082                0.959903678     -93.9281424
9.083                0.959797309     -94.0914094
9.084                0.959690677     -94.2551003
9.085                0.959583784     -94.4192162
9.086                0.959476628     -94.5837579
9.087                 0.95936921     -94.7487266
9.088                0.959261531     -94.9141233
9.089                0.959153591      -95.079949
9.09                  0.95904539     -95.2462048
9.091                0.958936929     -95.4128916
9.092                0.958828209     -95.5800104
9.093                0.958719229     -95.7475623
9.094                 0.95860999     -95.9155483
9.095                0.958500493     -96.0839695
9.096                0.958390738     -96.2528267
9.097                0.958280726     -96.4221211
9.098                0.958170457     -96.5918536
9.099                0.958059932     -96.7620252
9.1                  0.957949152     -96.9326369
9.101                0.957838116     -97.1036898
9.102                0.957726826     -97.2751848
9.103                0.957615282      -97.447123
9.104                0.957503484     -97.6195052
9.105                0.957391435     -97.7923325
9.106                0.957279133      -97.965606
9.107                 0.95716658     -98.1393265
9.108                0.957053777      -98.313495
9.109                0.956940724     -98.4881126
9.11                 0.956827422     -98.6631802
9.111                0.956713872     -98.8386987
9.112                0.956600075     -99.0146692
9.113                0.956486031     -99.1910926
9.114                0.956371741     -99.3679698
9.115                0.956257207     -99.5453019
9.116                0.956142428     -99.7230898
9.117                0.956027406     -99.9013343
9.118                0.955912142     -100.080037
9.119                0.955796636     -100.259197
9.12                 0.955680891     -100.438818
9.121                0.955564906     -100.618899
9.122                0.955448682     -100.799441
9.123                0.955332221     -100.980446
9.124                0.955215524     -101.161914
9.125                0.955098592     -101.343846
9.126                0.954981425     -101.526243
9.127                0.954864025     -101.709107
9.128                0.954746394     -101.892437
9.129                0.954628531     -102.076235
9.13                 0.954510439     -102.260502
9.131                0.954392118     -102.445238
9.132                0.954273571     -102.630445
9.133                0.954154797     -102.816123
9.134                0.954035798     -103.002274
9.135                0.953916576     -103.188897
9.136                0.953797132     -103.375995
9.137                0.953677468     -103.563567
9.138                0.953557583     -103.751615
9.139                0.953437481      -103.94014
9.14                 0.953317162     -104.129142
9.141                0.953196628     -104.318623
9.142                0.953075881     -104.508582
9.143                0.952954921     -104.699021
9.144                 0.95283375     -104.889941
9.145                 0.95271237     -105.081343
9.146                0.952590783     -105.273227
9.147                0.952468989     -105.465594
9.148                0.952346991     -105.658445
9.149                 0.95222479      -105.85178
9.15                 0.952102389     -106.045602
9.151                0.951979787     -106.239909
9.152                0.951856988     -106.434703
9.153                0.951733994     -106.629986
9.154                0.951610805     -106.825756
9.155                0.951487423     -107.022016
9.156                0.951363851     -107.218767
9.157                0.951240091     -107.416007
9.158                0.951116143      -107.61374
9.159                0.950992011     -107.811964
9.16                 0.950867696     -108.010682
9.161                  0.9507432     -108.209893
9.162                0.950618525     -108.409598
9.163                0.950493674     -108.609798
9.164                0.950368647     -108.810494
9.165                0.950243448     -109.011686
9.166                0.950118078     -109.213375
9.167                0.949992539     -109.415562
9.168                0.949866834     -109.618247
9.169                0.949740965     -109.821431
9.17                 0.949614935     -110.025114
9.171                0.949488744     -110.229298
9.172                0.949362397     -110.433982
9.173                0.949235894     -110.639167
9.174                0.949109239     -110.844855
9.175                0.948982434     -111.051044
9.176                0.948855481     -111.257737
9.177                0.948728383     -111.464934
9.178                0.948601142     -111.672634
9.179                 0.94847376     -111.880839
9.18                 0.948346241     -112.089549
9.181                0.948218587     -112.298765
9.182                  0.9480908     -112.508487
9.183                0.947962884     -112.718716
9.184                 0.94783484     -112.929452
9.185                0.947706671     -113.140695
9.186                0.947578381     -113.352447
9.187                0.947449972     -113.564707
9.188                0.947321447     -113.777476
9.189                0.947192808     -113.990754
9.19                 0.947064059     -114.204543
9.191                0.946935202     -114.418841
9.192                0.946806241      -114.63365
9.193                0.946677178     -114.848969
9.194                0.946548017       -115.0648
9.195                 0.94641876     -115.281143
9.196                 0.94628941     -115.497998
9.197                0.946159972     -115.715365
9.198                0.946030447     -115.933244
9.199                0.945900839     -116.151637
9.2                  0.945771151     -116.370542
9.201                0.945641386     -116.589961
9.202                0.945511548     -116.809894
9.203                0.945381641     -117.030341
9.204                0.945251666     -117.251302
9.205                0.945121629     -117.472777
9.206                0.944991531     -117.694767
9.207                0.944861377     -117.917272
9.208                0.944731171     -118.140291
9.209                0.944600915     -118.363826
9.21                 0.944470613     -118.587876
9.211                0.944340269     -118.812441
9.212                0.944209886     -119.037522
9.213                0.944079469     -119.263119
9.214                 0.94394902     -119.489231
9.215                0.943818544     -119.715859
9.216                0.943688044     -119.943002
9.217                0.943557524     -120.170662
9.218                0.943426988     -120.398837
9.219                 0.94329644     -120.627528
9.22                 0.943165884     -120.856735
9.221                0.943035323     -121.086458
9.222                0.942904762     -121.316697
9.223                0.942774205     -121.547451
9.224                0.942643655     -121.778721
9.225                0.942513117     -122.010507
9.226                0.942382595     -122.242808
9.227                0.942252093     -122.475624
9.228                0.942121616     -122.708955
9.229                0.941991167     -122.942802
9.23                  0.94186075     -123.177163
9.231                0.941730371     -123.412039
9.232                0.941600033     -123.647429
9.233                0.941469741     -123.883333
9.234                0.941339498     -124.119752
9.235                0.941209311     -124.356684
9.236                0.941079182     -124.594129
9.237                0.940949117     -124.832087
9.238                 0.94081912     -125.070558
9.239                0.940689195     -125.309541
9.24                 0.940559348     -125.549037
9.241                0.940429582     -125.789044
9.242                0.940299903     -126.029562
9.243                0.940170315     -126.270591
9.244                0.940040823      -126.51213
9.245                0.939911432     -126.754179
9.246                0.939782146     -126.996737
9.247                 0.93965297     -127.239805
9.248                 0.93952391      -127.48338
9.249                 0.93939497     -127.727464
9.25                 0.939266154     -127.972055
9.251                0.939137469     -128.217152
9.252                0.939008919     -128.462756
9.253                0.938880508     -128.708865
9.254                0.938752243     -128.955478
9.255                0.938624128     -129.202596
9.256                0.938496168     -129.450218
9.257                0.938368368     -129.698342
9.258                0.938240734     -129.946968
9.259                 0.93811327     -130.196095
9.26                 0.937985983     -130.445722
9.261                0.937858877      -130.69585
9.262                0.937731957     -130.946476
9.263                0.937605229       -131.1976
9.264                0.937478699     -131.449221
9.265                 0.93735237     -131.701339
9.266                 0.93722625     -131.953952
9.267                0.937100344     -132.207059
9.268                0.936974656     -132.460659
9.269                0.936849193     -132.714752
9.27                 0.936723959     -132.969337
9.271                0.936598961     -133.224412
9.272                0.936474204     -133.479976
9.273                0.936349693     -133.736029
9.274                0.936225435     -133.992569
9.275                0.936101434     -134.249595
9.276                0.935977697     -134.507106
9.277                0.935854229     -134.765101
9.278                0.935731036     -135.023578
9.279                0.935608123     -135.282537
9.28                 0.935485497     -135.541976
9.281                0.935363163     -135.801894
9.282                0.935241127     -136.062289
9.283                0.935119395     -136.323161
9.284                0.934997972     -136.584508
9.285                0.934876865     -136.846328
9.286                0.934756079      -137.10862
9.287                 0.93463562     -137.371384
9.288                0.934515495     -137.634616
9.289                0.934395708     -137.898317
9.29                 0.934276267     -138.162484
9.291                0.934157176     -138.427116
9.292                0.934038442     -138.692212
9.293                0.933920072     -138.957769
9.294                 0.93380207     -139.223786
9.295                0.933684443     -139.490263
9.296                0.933567198     -139.757196
9.297                0.933450339     -140.024584
9.298                0.933333874     -140.292427
9.299                0.933217807     -140.560721
9.3                  0.933102147     -140.829465
9.301                0.932986897     -141.098658
9.302                0.932872065     -141.368298
9.303                0.932757657     -141.638382
9.304                0.932643678      -141.90891
9.305                0.932530136     -142.179879
9.306                0.932417035     -142.451287
9.307                0.932304383     -142.723132
9.308                0.932192185     -142.995413
9.309                0.932080448     -143.268127
9.31                 0.931969177     -143.541273
9.311                0.931858379     -143.814848
9.312                 0.93174806     -144.088851
9.313                0.931638227     -144.363279
9.314                0.931528885      -144.63813
9.315                 0.93142004     -144.913403
9.316                0.931311699     -145.189094
9.317                0.931203868     -145.465202
9.318                0.931096554     -145.741725
9.319                0.930989761      -146.01866
9.32                 0.930883497     -146.296005
9.321                0.930777768     -146.573759
9.322                0.930672579     -146.851917
9.323                0.930567938     -147.130479
9.324                0.930463849     -147.409442
9.325                 0.93036032     -147.688804
9.326                0.930257357     -147.968561
9.327                0.930154964     -148.248712
9.328                 0.93005315     -148.529255
9.329                0.929951919     -148.810186
9.33                 0.929851278     -149.091503
9.331                0.929751233     -149.373204
9.332                0.929651791     -149.655286
9.333                0.929552956     -149.937747
9.334                0.929454736     -150.220583
9.335                0.929357135     -150.503793
9.336                0.929260161     -150.787373
9.337                 0.92916382     -151.071322
9.338                0.929068116     -151.355636
9.339                0.928973057     -151.640312
9.34                 0.928878648     -151.925348
9.341                0.928784895     -152.210741
9.342                0.928691804     -152.496488
9.343                 0.92859938     -152.782586
9.344                0.928507631     -153.069033
9.345                0.928416561     -153.355826
9.346                0.928326177     -153.642961
9.347                0.928236484     -153.930436
9.348                0.928147487     -154.218247
9.349                0.928059194     -154.506393
9.35                 0.927971609     -154.794869
9.351                0.927884738     -155.083673
9.352                0.927798586     -155.372802
9.353                0.927713161     -155.662253
9.354                0.927628466     -155.952022
9.355                0.927544507     -156.242106
9.356                0.927461291     -156.532503
9.357                0.927378822     -156.823209
9.358                0.927297107     -157.114221
9.359                0.927216149     -157.405536
9.36                 0.927135956      -157.69715
9.361                0.927056531      -157.98906
9.362                0.926977881     -158.281264
9.363                0.926900011     -158.573757
9.364                0.926822926     -158.866536
9.365                0.926746631     -159.159599
9.366                0.926671131     -159.452941
9.367                0.926596431     -159.746559
9.368                0.926522537      -160.04045
9.369                0.926449454     -160.334611
9.37                 0.926377185     -160.629037
9.371                0.926305738     -160.923726
9.372                0.926235115     -161.218675
9.373                0.926165322     -161.513878
9.374                0.926096365     -161.809334
9.375                0.926028246     -162.105038
9.376                0.925960973     -162.400987
9.377                0.925894547     -162.697177
9.378                0.925828976     -162.993605
9.379                0.925764262     -163.290267
9.38                 0.925700411      -163.58716
9.381                0.925637426     -163.884279
9.382                0.925575313     -164.181622
9.383                0.925514076     -164.479183
9.384                0.925453718     -164.776961
9.385                0.925394244      -165.07495
9.386                0.925335658     -165.373148
9.387                0.925277964      -165.67155
9.388                0.925221166     -165.970153
9.389                0.925165269     -166.268953
9.39                 0.925110275     -166.567946
9.391                 0.92505619     -166.867128
9.392                0.925003016     -167.166495
9.393                0.924950757     -167.466044
9.394                0.924899417     -167.765771
9.395                   0.924849     -168.065671
9.396                0.924799509     -168.365742
9.397                0.924750947     -168.665978
9.398                0.924703318     -168.966377
9.399                0.924656625     -169.266933
9.4                  0.924610872     -169.567644
9.401                0.924566061     -169.868505
9.402                0.924522196     -170.169512
9.403                 0.92447928     -170.470662
9.404                0.924437315      -170.77195
9.405                0.924396305     -171.073372
9.406                0.924356253     -171.374924
9.407                0.924317161     -171.676602
9.408                0.924279031     -171.978403
9.409                0.924241867     -172.280321
9.41                 0.924205671     -172.582354
9.411                0.924170445     -172.884496
9.412                0.924136193     -173.186745
9.413                0.924102915     -173.489095
9.414                0.924070615     -173.791543
9.415                0.924039295     -174.094084
9.416                0.924008956     -174.396715
9.417                0.923979601     -174.699431
9.418                0.923951231     -175.002229
9.419                0.923923849     -175.305103
9.42                 0.923897456     -175.608051
9.421                0.923872054     -175.911067
9.422                0.923847645     -176.214148
9.423                 0.92382423     -176.517289
9.424                0.923801811     -176.820486
9.425                0.923780388     -177.123736
9.426                0.923759964     -177.427034
9.427                0.923740539     -177.730375
9.428                0.923722115     -178.033756
9.429                0.923704693     -178.337172
9.43                 0.923688274      -178.64062
9.431                0.923672858     -178.944094
9.432                0.923658447     -179.247592
9.433                0.923645041     -179.551108
9.434                0.923632642     -179.854638
9.435                0.923621248      179.841821
9.436                0.923610862      179.538274
9.437                0.923601483      179.234726
9.438                0.923593112       178.93118
9.439                 0.92358575       178.62764
9.44                 0.923579395      178.324111
9.441                0.923574049      178.020598
9.442                0.923569712      177.717103
9.443                0.923566382      177.413631
9.444                0.923564061      177.110188
9.445                0.923562749      176.806776
9.446                0.923562444        176.5034
9.447                0.923563146      176.200064
9.448                0.923564855      175.896772
9.449                0.923567571      175.593529
9.45                 0.923571292      175.290338
9.451                0.923576019      174.987204
9.452                 0.92358175      174.684132
9.453                0.923588484      174.381124
9.454                0.923596221      174.078186
9.455                 0.92360496      173.775321
9.456                0.923614699      173.472534
9.457                0.923625437      173.169828
9.458                0.923637173      172.867209
9.459                0.923649906      172.564679
9.46                 0.923663634      172.262244
9.461                0.923678356      171.959906
9.462                0.923694071      171.657671
9.463                0.923710775      171.355543
9.464                0.923728469      171.053524
9.465                 0.92374715      170.751621
9.466                0.923766816      170.449836
9.467                0.923787466      170.148174
9.468                0.923809096      169.846638
9.469                0.923831706      169.545233
9.47                 0.923855293      169.243963
9.471                0.923879855      168.942832
9.472                0.923905389      168.641843
9.473                0.923931893      168.341002
9.474                0.923959365      168.040311
9.475                0.923987802      167.739774
9.476                0.924017202      167.439397
9.477                0.924047561      167.139182
9.478                0.924078878      166.839133
9.479                0.924111148      166.539255
9.48                  0.92414437      166.239551
9.481                0.924178541      165.940026
9.482                0.924213657      165.640682
9.483                0.924249716      165.341525
9.484                0.924286713      165.042557
9.485                0.924324647      164.743783
9.486                0.924363513      164.445206
9.487                0.924403309      164.146831
9.488                 0.92444403       163.84866
9.489                0.924485674      163.550699
9.49                 0.924528237      163.252949
9.491                0.924571715      162.955416
9.492                0.924616105      162.658103
9.493                0.924661403      162.361014
9.494                0.924707605      162.064152
9.495                0.924754708       161.76752
9.496                0.924802706      161.471124
9.497                0.924851597      161.174965
9.498                0.924901377      160.879049
9.499                0.924952041      160.583378
9.5                  0.925003585      160.287955
9.501                0.925056005      159.992786
9.502                0.925109297      159.697872
9.503                0.925163457      159.403218
9.504                0.925218479      159.108827
9.505                0.925274361      158.814702
9.506                0.925331096      158.520847
9.507                0.925388682      158.227266
9.508                0.925447113      157.933962
9.509                0.925506384      157.640937
9.51                 0.925566492      157.348197
9.511                 0.92562743      157.055743
9.512                0.925689196      156.763579
9.513                0.925751783      156.471708
9.514                0.925815187      156.180135
9.515                0.925879404      155.888861
9.516                0.925944427      155.597891
9.517                0.926010253      155.307227
9.518                0.926076876      155.016873
9.519                0.926144291      154.726832
9.52                 0.926212493      154.437106
9.521                0.926281478        154.1477
9.522                0.926351239      153.858615
9.523                0.926421771      153.569856
9.524                0.926493071      153.281426
9.525                0.926565131      152.993326
9.526                0.926637947      152.705561
9.527                0.926711514      152.418133
9.528                0.926785826      152.131046
9.529                0.926860878      151.844301
9.53                 0.926936664      151.557903
9.531                0.927013179      151.271853
9.532                0.927090418      150.986156
9.533                0.927168374      150.700813
9.534                0.927247043      150.415827
9.535                0.927326419      150.131202
9.536                0.927406496       149.84694
9.537                0.927487268      149.563043
9.538                 0.92756873      149.279515
9.539                0.927650877      148.996358
9.54                 0.927733702      148.713575
9.541                  0.9278172      148.431168
9.542                0.927901366       148.14914
9.543                0.927986192      147.867494
9.544                0.928071675      147.586232
9.545                0.928157807      147.305356
9.546                0.928244583       147.02487
9.547                0.928331998      146.744776
9.548                0.928420045      146.465075
9.549                0.928508718      146.185771
9.55                 0.928598013      145.906866
9.551                0.928687922      145.628363
9.552                 0.92877844      145.350263
9.553                 0.92886956      145.072569
9.554                0.928961279      144.795283
9.555                0.929053588      144.518408
9.556                0.929146482      144.241946
9.557                0.929239956      143.965899
9.558                0.929334003      143.690269
9.559                0.929428618      143.415059
9.56                 0.929523794       143.14027
9.561                0.929619526      142.865905
9.562                0.929715807      142.591965
9.563                0.929812632      142.318454
9.564                0.929909994      142.045372
9.565                0.930007888      141.772722
9.566                0.930106308      141.500506
9.567                0.930205247      141.228726
9.568                  0.9303047      140.957384
9.569                 0.93040466      140.686481
9.57                 0.930505122      140.416021
9.571                 0.93060608      140.146003
9.572                0.930707528      139.876431
9.573                 0.93080946      139.607306
9.574                0.930911869       139.33863
9.575                 0.93101475      139.070404
9.576                0.931118098      138.802631
9.577                0.931221905      138.535312
9.578                0.931326166      138.268448
9.579                0.931430875      138.002042
9.58                 0.931536026      137.736095
9.581                0.931641614      137.470609
9.582                0.931747632      137.205585
9.583                0.931854074      136.941025
9.584                0.931960935       136.67693
9.585                0.932068209      136.413302
9.586                0.932175889      136.150142
9.587                0.932283971      135.887452
9.588                0.932392447      135.625233
9.589                0.932501313      135.363487
9.59                 0.932610562      135.102214
9.591                0.932720189      134.841417
9.592                0.932830187      134.581097
9.593                0.932940552      134.321255
9.594                0.933051277      134.061892
9.595                0.933162357      133.803009
9.596                0.933273786      133.544608
9.597                0.933385558       133.28669
9.598                0.933497667      133.029256
9.599                0.933610108      132.772308
9.6                  0.933722876      132.515846
9.601                0.933835964      132.259871