! TOUCHSTONE file generated by CST DESIGN STUDIO
! Date and time: Wed Feb  5 13:42:27 2025
! Project name: C:\Work\MatlabApps\UnitCellOptimizationMatlab\CST\unitcell.cst
! Tree item: Tasks\Sweep1\SPara1\S-Parameters
! Header version: 2024
! Port assignment regex: !\s*Touchstone port\s*([0-9]+)\s*=\s*(CST MWS port|CST DES external port|CST DES block port)\s*(.+)\s* \(\"(.*)\"\)(\s*mode\s*([0-9]+))?.*
! Touchstone port assignment:
! Touchstone port 1 = CST DES external port 1 ("")
# GHz S MA R 50
9                    0.970935184     -60.3517418
9.001                0.970875773     -60.4344337
9.002                0.970816179     -60.5173159
9.003                0.970756403     -60.6003888
9.004                0.970696442     -60.6836532
9.005                0.970636298     -60.7671097
9.006                0.970575968     -60.8507587
9.007                0.970515454      -60.934601
9.008                0.970454753     -61.0186372
9.009                0.970393866     -61.1028678
9.01                 0.970332792     -61.1872934
9.011                 0.97027153     -61.2719148
9.012                0.970210079     -61.3567324
9.013                 0.97014844      -61.441747
9.014                0.970086611      -61.526959
9.015                0.970024592     -61.6123692
9.016                0.969962383     -61.6979782
9.017                0.969899982     -61.7837866
9.018                0.969837389     -61.8697951
9.019                0.969774604     -61.9560042
9.02                 0.969711626     -62.0424145
9.021                0.969648454     -62.1290268
9.022                0.969585088     -62.2158417
9.023                0.969521527     -62.3028598
9.024                 0.96945777     -62.3900817
9.025                0.969393817     -62.4775081
9.026                0.969329668     -62.5651396
9.027                0.969265321     -62.6529769
9.028                0.969200776     -62.7410207
9.029                0.969136032     -62.8292715
9.03                  0.96907109     -62.9177301
9.031                0.969005948      -63.006397
9.032                0.968940605      -63.095273
9.033                0.968875061     -63.1843588
9.034                0.968809315     -63.2736549
9.035                0.968743368      -63.363162
9.036                0.968677217     -63.4528808
9.037                0.968610863     -63.5428121
9.038                0.968544304     -63.6329564
9.039                0.968477541     -63.7233144
9.04                 0.968410573     -63.8138868
9.041                0.968343398     -63.9046743
9.042                0.968276017     -63.9956776
9.043                0.968208428     -64.0868973
9.044                0.968140632     -64.1783341
9.045                0.968072627     -64.2699888
9.046                0.968004413      -64.361862
9.047                0.967935989     -64.4539543
9.048                0.967867354     -64.5462666
9.049                0.967798509     -64.6387995
9.05                 0.967729451     -64.7315537
9.051                0.967660182     -64.8245299
9.052                0.967590699     -64.9177288
9.053                0.967521003     -65.0111511
9.054                0.967451092     -65.1047975
9.055                0.967380967     -65.1986688
9.056                0.967310626     -65.2927656
9.057                0.967240068     -65.3870887
9.058                0.967169294     -65.4816387
9.059                0.967098303     -65.5764165
9.06                 0.967027093     -65.6714227
9.061                0.966955664      -65.766658
9.062                0.966884016     -65.8621232
9.063                0.966812148      -65.957819
9.064                0.966740059     -66.0537462
9.065                0.966667749     -66.1499055
9.066                0.966595216     -66.2462975
9.067                0.966522461     -66.3429232
9.068                0.966449483     -66.4397831
9.069                 0.96637628     -66.5368781
9.07                 0.966302853     -66.6342088
9.071                0.966229201     -66.7317761
9.072                0.966155323     -66.8295807
9.073                0.966081218     -66.9276234
9.074                0.966006885     -67.0259048
9.075                0.965932325     -67.1244258
9.076                0.965857536     -67.2231872
9.077                0.965782518     -67.3221896
9.078                 0.96570727     -67.4214339
9.079                0.965631792     -67.5209208
9.08                 0.965556082     -67.6206511
9.081                0.965480141     -67.7206256
9.082                0.965403967     -67.8208451
9.083                0.965327559     -67.9213102
9.084                0.965250918     -68.0220219
9.085                0.965174042     -68.1229809
9.086                0.965096931     -68.2241879
9.087                0.965019585     -68.3256439
9.088                0.964942002     -68.4273495
9.089                0.964864181     -68.5293055
9.09                 0.964786123     -68.6315128
9.091                0.964707826     -68.7339722
9.092                0.964629291     -68.8366844
9.093                0.964550515     -68.9396502
9.094                0.964471499     -69.0428706
9.095                0.964392242     -69.1463461
9.096                0.964312743     -69.2500778
9.097                0.964233001     -69.3540664
9.098                0.964153017     -69.4583127
9.099                0.964072789     -69.5628175
9.1                  0.963992316     -69.6675817
9.101                0.963911598     -69.7726061
9.102                0.963830635     -69.8778914
9.103                0.963749425     -69.9834386
9.104                0.963667968     -70.0892485
9.105                0.963586263     -70.1953218
9.106                 0.96350431     -70.3016595
9.107                0.963422108     -70.4082624
9.108                0.963339656     -70.5151313
9.109                0.963256954      -70.622267
9.11                 0.963174001     -70.7296705
9.111                0.963090796     -70.8373425
9.112                0.963007339     -70.9452839
9.113                0.962923629     -71.0534956
9.114                0.962839665     -71.1619784
9.115                0.962755447     -71.2707332
9.116                0.962670974     -71.3797608
9.117                0.962586245     -71.4890621
9.118                0.962501261      -71.598638
9.119                0.962416019     -71.7084894
9.12                  0.96233052      -71.818617
9.121                0.962244763     -71.9290219
9.122                0.962158746     -72.0397048
9.123                0.962072471     -72.1506666
9.124                0.961985935     -72.2619083
9.125                0.961899139     -72.3734307
9.126                0.961812081     -72.4852347
9.127                0.961724761     -72.5973211
9.128                0.961637178      -72.709691
9.129                0.961549332     -72.8223451
9.13                 0.961461223     -72.9352844
9.131                0.961372848     -73.0485097
9.132                0.961284209     -73.1620221
9.133                0.961195303     -73.2758223
9.134                0.961106131     -73.3899113
9.135                0.961016692       -73.50429
9.136                0.960926986     -73.6189593
9.137                0.960837011     -73.7339201
9.138                0.960746767     -73.8491733
9.139                0.960656253       -73.96472
9.14                 0.960565469     -74.0805609
9.141                0.960474415     -74.1966969
9.142                0.960383089     -74.3131292
9.143                0.960291491     -74.4298585
9.144                 0.96019962     -74.5468858
9.145                0.960107476      -74.664212
9.146                0.960015058      -74.781838
9.147                0.959922366     -74.8997649
9.148                0.959829398     -75.0179935
9.149                0.959736155     -75.1365249
9.15                 0.959642636     -75.2553598
9.151                 0.95954884     -75.3744994
9.152                0.959454766     -75.4939444
9.153                0.959360415      -75.613696
9.154                0.959265784      -75.733755
9.155                0.959170875     -75.8541225
9.156                0.959075686     -75.9747993
9.157                0.958980216     -76.0957864
9.158                0.958884466     -76.2170848
9.159                0.958788434     -76.3386955
9.16                  0.95869212     -76.4606195
9.161                0.958595524     -76.5828576
9.162                0.958498644      -76.705411
9.163                0.958401481     -76.8282805
9.164                0.958304033     -76.9514671
9.165                0.958206301     -77.0749719
9.166                0.958108283     -77.1987958
9.167                 0.95800998     -77.3229398
9.168                 0.95791139     -77.4474049
9.169                0.957812513     -77.5721921
9.17                 0.957713348     -77.6973023
9.171                0.957613896     -77.8227366
9.172                0.957514155      -77.948496
9.173                0.957414125     -78.0745815
9.174                0.957313805     -78.2009941
9.175                0.957213196     -78.3277347
9.176                0.957112296     -78.4548044
9.177                0.957011105     -78.5822042
9.178                0.956909622     -78.7099352
9.179                0.956807847     -78.8379982
9.18                  0.95670578     -78.9663944
9.181                 0.95660342     -79.0951248
9.182                0.956500767     -79.2241904
9.183                0.956397819     -79.3535921
9.184                0.956294578     -79.4833311
9.185                0.956191041     -79.6134084
9.186                0.956087209     -79.7438249
9.187                0.955983082     -79.8745818
9.188                0.955878658       -80.00568
9.189                0.955773938     -80.1371206
9.19                 0.955668921     -80.2689047
9.191                0.955563606     -80.4010332
9.192                0.955457994     -80.5335072
9.193                0.955352083     -80.6663278
9.194                0.955245874      -80.799496
9.195                0.955139366     -80.9330128
9.196                0.955032558     -81.0668793
9.197                0.954925451     -81.2010965
9.198                0.954818043     -81.3356656
9.199                0.954710335     -81.4705875
9.2                  0.954602326     -81.6058633
9.201                0.954494016     -81.7414941
9.202                0.954385404      -81.877481
9.203                0.954276491     -82.0138249
9.204                0.954167275      -82.150527
9.205                0.954057756     -82.2875883
9.206                0.953947935     -82.4250099
9.207                0.953837811     -82.5627929
9.208                0.953727383     -82.7009383
9.209                0.953616651     -82.8394472
9.21                 0.953505615     -82.9783207
9.211                0.953394275     -83.1175599
9.212                0.953282631     -83.2571658
9.213                0.953170681     -83.3971395
9.214                0.953058427     -83.5374821
9.215                0.952945867     -83.6781947
9.216                0.952833002     -83.8192783
9.217                0.952719831     -83.9607341
9.218                0.952606354     -84.1025632
9.219                0.952492571     -84.2447665
9.22                 0.952378481     -84.3873453
9.221                0.952264085     -84.5303006
9.222                0.952149382     -84.6736335
9.223                0.952034372      -84.817345
9.224                0.951919056     -84.9614364
9.225                0.951803432     -85.1059086
9.226                0.951687501     -85.2507628
9.227                0.951571262     -85.3960001
9.228                0.951454716     -85.5416216
9.229                0.951337862     -85.6876283
9.23                 0.951220701     -85.8340214
9.231                0.951103232      -85.980802
9.232                0.950985455     -86.1279712
9.233                 0.95086737     -86.2755301
9.234                0.950748977     -86.4234798
9.235                0.950630276     -86.5718214
9.236                0.950511268      -86.720556
9.237                0.950391951     -86.8696847
9.238                0.950272326     -87.0192087
9.239                0.950152394      -87.169129
9.24                 0.950032153     -87.3194467
9.241                0.949911605      -87.470163
9.242                0.949790749      -87.621279
9.243                0.949669585     -87.7727958
9.244                0.949548113     -87.9247145
9.245                0.949426334     -88.0770362
9.246                0.949304248      -88.229762
9.247                0.949181854     -88.3828931
9.248                0.949059153     -88.5364305
9.249                0.948936145     -88.6903754
9.25                  0.94881283     -88.8447289
9.251                0.948689208     -88.9994921
9.252                 0.94856528     -89.1546661
9.253                0.948441046     -89.3102521
9.254                0.948316506     -89.4662512
9.255                 0.94819166     -89.6226644
9.256                0.948066508     -89.7794929
9.257                0.947941052     -89.9367378
9.258                 0.94781529     -90.0944002
9.259                0.947689224     -90.2524813
9.26                 0.947562853     -90.4109822
9.261                0.947436179     -90.5699039
9.262                  0.9473092     -90.7292476
9.263                0.947181919     -90.8890144
9.264                0.947054335     -91.0492055
9.265                0.946926448     -91.2098219
9.266                0.946798259     -91.3708647
9.267                0.946669769     -91.5323351
9.268                0.946540977     -91.6942342
9.269                0.946411885     -91.8565631
9.27                 0.946282493     -92.0193229
9.271                0.946152801     -92.1825147
9.272                0.946022811     -92.3461397
9.273                0.945892521     -92.5101989
9.274                0.945761934     -92.6746934
9.275                0.945631049     -92.8396244
9.276                0.945499867     -93.0049929
9.277                 0.94536839     -93.1708001
9.278                0.945236617     -93.3370471
9.279                0.945104549      -93.503735
9.28                 0.944972187     -93.6708648
9.281                0.944839531     -93.8384378
9.282                0.944706583     -94.0064549
9.283                0.944573343     -94.1749173
9.284                0.944439812      -94.343826
9.285                 0.94430599     -94.5131822
9.286                0.944171879      -94.682987
9.287                0.944037479     -94.8532414
9.288                0.943902792     -95.0239466
9.289                0.943767817     -95.1951036
9.29                 0.943632556     -95.3667135
9.291                 0.94349701     -95.5387774
9.292                 0.94336118     -95.7112964
9.293                0.943225067     -95.8842715
9.294                0.943088672     -96.0577039
9.295                0.942951995     -96.2315946
9.296                0.942815039     -96.4059446
9.297                0.942677803     -96.5807551
9.298                0.942540289     -96.7560271
9.299                0.942402499     -96.9317617
9.3                  0.942264432     -97.1079599
9.301                0.942126092     -97.2846228
9.302                0.941987477     -97.4617515
9.303                0.941848591     -97.6393469
9.304                0.941709434     -97.8174103
9.305                0.941570007     -97.9959425
9.306                0.941430312     -98.1749446
9.307                 0.94129035     -98.3544178
9.308                0.941150122     -98.5343629
9.309                 0.94100963     -98.7147811
9.31                 0.940868875     -98.8956734
9.311                0.940727859     -99.0770408
9.312                0.940586583     -99.2588843
9.313                0.940445048      -99.441205
9.314                0.940303256     -99.6240038
9.315                0.940161209     -99.8072817
9.316                0.940018908     -99.9910399
9.317                0.939876354     -100.175279
9.318                 0.93973355     -100.360001
9.319                0.939590498     -100.545205
9.32                 0.939447197     -100.730894
9.321                0.939303652     -100.917068
9.322                0.939159862     -101.103728
9.323                 0.93901583     -101.290875
9.324                0.938871558      -101.47851
9.325                0.938727048     -101.666634
9.326                0.938582301     -101.855248
9.327                 0.93843732     -102.044353
9.328                0.938292106      -102.23395
9.329                0.938146661      -102.42404
9.33                 0.938000988     -102.614623
9.331                0.937855087     -102.805702
9.332                0.937708962     -102.997275
9.333                0.937562615     -103.189345
9.334                0.937416047     -103.381913
9.335                0.937269261     -103.574979
9.336                0.937122259     -103.768544
9.337                0.936975043      -103.96261
9.338                0.936827615     -104.157176
9.339                0.936679979     -104.352244
9.34                 0.936532135     -104.547815
9.341                0.936384087      -104.74389
9.342                0.936235836     -104.940469
9.343                0.936087386     -105.137553
9.344                0.935938738     -105.335144
9.345                0.935789896     -105.533242
9.346                0.935640861     -105.731847
9.347                0.935491637     -105.930962
9.348                0.935342226     -106.130585
9.349                 0.93519263     -106.330719
9.35                 0.935042852     -106.531365
9.351                0.934892896     -106.732522
9.352                0.934742763     -106.934191
9.353                0.934592457     -107.136374
9.354                 0.93444198     -107.339072
9.355                0.934291336     -107.542284
9.356                0.934140526     -107.746012
9.357                0.933989555     -107.950257
9.358                0.933838425     -108.155018
9.359                0.933687139     -108.360298
9.36                   0.9335357     -108.566096
9.361                0.933384112     -108.772414
9.362                0.933232376     -108.979251
9.363                0.933080498      -109.18661
9.364                0.932928479     -109.394489
9.365                0.932776323     -109.602891
9.366                0.932624034     -109.811815
9.367                0.932471614     -110.021263
9.368                0.932319068     -110.231235
9.369                0.932166398     -110.441731
9.37                 0.932013608     -110.652752
9.371                0.931860701       -110.8643
9.372                0.931707681     -111.076373
9.373                0.931554552     -111.288974
9.374                0.931401317     -111.502102
9.375                 0.93124798     -111.715758
9.376                0.931094545     -111.929943
9.377                0.930941015     -112.144657
9.378                0.930787394     -112.359901
9.379                0.930633685     -112.575675
9.38                 0.930479894     -112.791979
9.381                0.930326023     -113.008815
9.382                0.930172077     -113.226182
9.383                 0.93001806     -113.444082
9.384                0.929863975     -113.662514
9.385                0.929709827     -113.881479
9.386                 0.92955562     -114.100977
9.387                0.929401358     -114.321009
9.388                0.929247046     -114.541575
9.389                0.929092687     -114.762676
9.39                 0.928938285     -114.984312
9.391                0.928783846     -115.206483
9.392                0.928629373      -115.42919
9.393                0.928474872     -115.652433
9.394                0.928320346     -115.876211
9.395                0.928165799     -116.100527
9.396                0.928011238     -116.325379
9.397                0.927856665     -116.550768
9.398                0.927702086     -116.776695
9.399                0.927547506     -117.003159
9.4                  0.927392929     -117.230161
9.401                0.927238359     -117.457701
9.402                0.927083803      -117.68578
9.403                0.926929264     -117.914396
9.404                0.926774748     -118.143551
9.405                0.926620259     -118.373245
9.406                0.926465803     -118.603477
9.407                0.926311384     -118.834248
9.408                0.926157007     -119.065558
9.409                0.926002679     -119.297408
9.41                 0.925848403     -119.529796
9.411                0.925694186     -119.762723
9.412                0.925540031      -119.99619
9.413                0.925385946     -120.230196
9.414                0.925231934      -120.46474
9.415                0.925078002     -120.699824
9.416                0.924924155     -120.935447
9.417                0.924770397     -121.171609
9.418                0.924616736      -121.40831
9.419                0.924463176     -121.645549
9.42                 0.924309723     -121.883328
9.421                0.924156382     -122.121644
9.422                 0.92400316     -122.360499
9.423                0.923850062     -122.599893
9.424                0.923697093     -122.839824
9.425                 0.92354426     -123.080293
9.426                0.923391569     -123.321299
9.427                0.923239024     -123.562843
9.428                0.923086633     -123.804923
9.429                0.922934402     -124.047541
9.43                 0.922782335     -124.290694
9.431                 0.92263044     -124.534384
9.432                0.922478722     -124.778609
9.433                0.922327188     -125.023369
9.434                0.922175843     -125.268665
9.435                0.922024695     -125.514494
9.436                0.921873748     -125.760858
9.437                 0.92172301     -126.007755
9.438                0.921572487     -126.255185
9.439                0.921422186     -126.503148
9.44                 0.921272111     -126.751643
9.441                0.921122271     -127.000669
9.442                0.920972672     -127.250226
9.443                0.920823319     -127.500313
9.444                0.920674221      -127.75093
9.445                0.920525382     -128.002075
9.446                0.920376811     -128.253749
9.447                0.920228513     -128.505951
9.448                0.920080495      -128.75868
9.449                0.919932765     -129.011934
9.45                 0.919785328     -129.265714
9.451                0.919638192     -129.520019
9.452                0.919491364     -129.774847
9.453                 0.91934485     -130.030199
9.454                0.919198657     -130.286072
9.455                0.919052793     -130.542467
9.456                0.918907263     -130.799382
9.457                0.918762077     -131.056817
9.458                0.918617239     -131.314769
9.459                0.918472758      -131.57324
9.46                  0.91832864     -131.832227
9.461                0.918184893     -132.091729
9.462                0.918041524     -132.351745
9.463                 0.91789854     -132.612275
9.464                0.917755948     -132.873317
9.465                0.917613755      -133.13487
9.466                 0.91747197     -133.396933
9.467                0.917330598     -133.659505
9.468                0.917189648     -133.922584
9.469                0.917049126      -134.18617
9.47                 0.916909041      -134.45026
9.471                0.916769399     -134.714855
9.472                0.916630208     -134.979951
9.473                0.916491476     -135.245549
9.474                0.916353209     -135.511646
9.475                0.916215416     -135.778242
9.476                0.916078104     -136.045335
9.477                 0.91594128     -136.312923
9.478                0.915804952     -136.581005
9.479                0.915669128      -136.84958
9.48                 0.915533815     -137.118645
9.481                 0.91539902       -137.3882
9.482                0.915264752     -137.658243
9.483                0.915131018     -137.928772
9.484                0.914997825     -138.199786
9.485                0.914865182     -138.471282
9.486                0.914733096      -138.74326
9.487                0.914601575     -139.015717
9.488                0.914470625     -139.288652
9.489                0.914340256     -139.562063
9.49                 0.914210475     -139.835949
9.491                0.914081289     -140.110306
9.492                0.913952707     -140.385134
9.493                0.913824735     -140.660431
9.494                0.913697383     -140.936194
9.495                0.913570656     -141.212423
9.496                0.913444564     -141.489114
9.497                0.913319115     -141.766265
9.498                0.913194314     -142.043876
9.499                0.913070172     -142.321943
9.5                  0.912946694     -142.600465
9.501                 0.91282389     -142.879439
9.502                0.912701767     -143.158864
9.503                0.912580332     -143.438737
9.504                0.912459593     -143.719056
9.505                0.912339559     -143.999819
9.506                0.912220236     -144.281023
9.507                0.912101633     -144.562667
9.508                0.911983758     -144.844748
9.509                0.911866617     -145.127263
9.51                 0.911750219      -145.41021
9.511                0.911634572     -145.693588
9.512                0.911519682     -145.977392
9.513                0.911405559     -146.261622
9.514                0.911292209     -146.546274
9.515                 0.91117964     -146.831346
9.516                 0.91106786     -147.116836
9.517                0.910956876     -147.402741
9.518                0.910846696     -147.689057
9.519                0.910737328     -147.975784
9.52                 0.910628779     -148.262917
9.521                0.910521056     -148.550455
9.522                0.910414168     -148.838395
9.523                0.910308121     -149.126733
9.524                0.910202923     -149.415468
9.525                0.910098582     -149.704596
9.526                0.909995105     -149.994114
9.527                0.909892499     -150.284021
9.528                0.909790771     -150.574312
9.529                 0.90968993     -150.864985
9.53                 0.909589982     -151.156037
9.531                0.909490934     -151.447465
9.532                0.909392795     -151.739266
9.533                 0.90929557     -152.031437
9.534                0.909199267     -152.323975
9.535                0.909103894     -152.616878
9.536                0.909009456     -152.910141
9.537                0.908915962     -153.203762
9.538                0.908823419     -153.497737
9.539                0.908731832     -153.792064
9.54                  0.90864121     -154.086739
9.541                0.908551559      -154.38176
9.542                0.908462886     -154.677122
9.543                0.908375197     -154.972822
9.544                0.908288499     -155.268858
9.545                  0.9082028     -155.565226
9.546                0.908118105     -155.861922
9.547                0.908034421     -156.158944
9.548                0.907951755     -156.456287
9.549                0.907870114     -156.753948
9.55                 0.907789502     -157.051925
9.551                0.907709928     -157.350213
9.552                0.907631397     -157.648809
9.553                0.907553916     -157.947709
9.554                 0.90747749     -158.246911
9.555                0.907402126     -158.546409
9.556                0.907327829     -158.846201
9.557                0.907254607     -159.146284
9.558                0.907182464     -159.446653
9.559                0.907111407     -159.747304
9.56                 0.907041441     -160.048235
9.561                0.906972573     -160.349441
9.562                0.906904807     -160.650919
9.563                0.906838149     -160.952665
9.564                0.906772606     -161.254675
9.565                0.906708182     -161.556946
9.566                0.906644882     -161.859473
9.567                0.906582713     -162.162252
9.568                0.906521679     -162.465281
9.569                0.906461786     -162.768555
9.57                 0.906403038     -163.072069
9.571                 0.90634544     -163.375821
9.572                0.906288998     -163.679806
9.573                0.906233716     -163.984021
9.574                  0.9061796      -164.28846
9.575                0.906126653     -164.593122
9.576                 0.90607488        -164.898
9.577                0.906024287     -165.203092
9.578                0.905974876     -165.508393
9.579                0.905926654     -165.813899
9.58                 0.905879623     -166.119606
9.581                0.905833788      -166.42551
9.582                0.905789154     -166.731608
9.583                0.905745723     -167.037893
9.584                0.905703501     -167.344364
9.585                0.905662491     -167.651015
9.586                0.905622696     -167.957842
9.587                0.905584121     -168.264841
9.588                0.905546768     -168.572009
9.589                0.905510642     -168.879339
9.59                 0.905475746      -169.18683
9.591                0.905442082     -169.494475
9.592                0.905409655     -169.802271
9.593                0.905378467     -170.110214
9.594                0.905348521       -170.4183
9.595                 0.90531982     -170.726523
9.596                0.905292366      -171.03488
9.597                0.905266164     -171.343366
9.598                0.905241214     -171.651978
9.599                 0.90521752      -171.96071
9.6                  0.905195084     -172.269558
9.601                0.905173909     -172.578519