! TOUCHSTONE file generated by CST DESIGN STUDIO
! Date and time: Tue Feb  4 17:14:51 2025
! Project name: C:\Work\MatlabApps\UnitCellOptimizationMatlab\CST\unitcell.cst
! Tree item: Tasks\Sweep1\SPara1\S-Parameters
! Header version: 2024
! Port assignment regex: !\s*Touchstone port\s*([0-9]+)\s*=\s*(CST MWS port|CST DES external port|CST DES block port)\s*(.+)\s* \(\"(.*)\"\)(\s*mode\s*([0-9]+))?.*
! Touchstone port assignment:
! Touchstone port 1 = CST DES external port 1 ("")
# GHz S MA R 50
9                    0.959942895     -77.0754553
9.001                0.959838458     -77.1968445
9.002                0.959733707     -77.3185461
9.003                0.959628642      -77.440561
9.004                0.959523261     -77.5628902
9.005                0.959417563     -77.6855348
9.006                0.959311549     -77.8084956
9.007                0.959205217     -77.9317737
9.008                0.959098567       -78.05537
9.009                0.958991597     -78.1792855
9.01                 0.958884308     -78.3035212
9.011                0.958776699     -78.4280781
9.012                0.958668768     -78.5529571
9.013                0.958560515     -78.6781593
9.014                 0.95845194     -78.8036857
9.015                0.958343041     -78.9295372
9.016                0.958233819     -79.0557148
9.017                0.958124272     -79.1822196
9.018                  0.9580144     -79.3090525
9.019                0.957904202     -79.4362146
9.02                 0.957793677     -79.5637068
9.021                0.957682826     -79.6915302
9.022                0.957571646     -79.8196857
9.023                0.957460138     -79.9481745
9.024                  0.9573483     -80.0769974
9.025                0.957236133     -80.2061555
9.026                0.957123636     -80.3356499
9.027                0.957010807     -80.4654815
9.028                0.956897647     -80.5956514
9.029                0.956784154     -80.7261606
9.03                 0.956670329     -80.8570101
9.031                 0.95655617     -80.9882009
9.032                0.956441677     -81.1197342
9.033                0.956326849     -81.2516109
9.034                0.956211686      -81.383832
9.035                0.956096187     -81.5163986
9.036                0.955980352     -81.6493117
9.037                 0.95586418     -81.7825724
9.038                 0.95574767     -81.9161817
9.039                0.955630822     -82.0501407
9.04                 0.955513636     -82.1844504
9.041                 0.95539611     -82.3191118
9.042                0.955278244      -82.454126
9.043                0.955160039     -82.5894941
9.044                0.955041492      -82.725217
9.045                0.954922604      -82.861296
9.046                0.954803375     -82.9977319
9.047                0.954683803     -83.1345259
9.048                0.954563888     -83.2716791
9.049                 0.95444363     -83.4091925
9.05                 0.954323028     -83.5470671
9.051                0.954202082     -83.6853041
9.052                0.954080791     -83.8239044
9.053                0.953959155     -83.9628692
9.054                0.953837174     -84.1021996
9.055                0.953714846     -84.2418965
9.056                0.953592172     -84.3819612
9.057                0.953469151     -84.5223946
9.058                0.953345783     -84.6631978
9.059                0.953222067     -84.8043719
9.06                 0.953098003     -84.9459181
9.061                0.952973591     -85.0878373
9.062                 0.95284883     -85.2301306
9.063                 0.95272372     -85.3727992
9.064                 0.95259826     -85.5158441
9.065                 0.95247245     -85.6592664
9.066                 0.95234629     -85.8030672
9.067                0.952219779     -85.9472476
9.068                0.952092918     -86.0918087
9.069                0.951965705     -86.2367515
9.07                 0.951838142     -86.3820772
9.071                0.951710226     -86.5277868
9.072                0.951581958     -86.6738815
9.073                0.951453338     -86.8203623
9.074                0.951324366     -86.9672303
9.075                0.951195041     -87.1144867
9.076                0.951065363     -87.2621325
9.077                0.950935331     -87.4101688
9.078                0.950804947     -87.5585968
9.079                0.950674208     -87.7074175
9.08                 0.950543117      -87.856632
9.081                0.950411671     -88.0062415
9.082                0.950279871      -88.156247
9.083                0.950147717     -88.3066496
9.084                0.950015209     -88.4574505
9.085                0.949882346     -88.6086507
9.086                0.949749129     -88.7602514
9.087                0.949615557     -88.9122536
9.088                 0.94948163     -89.0646585
9.089                0.949347349     -89.2174672
9.09                 0.949212713     -89.3706808
9.091                0.949077722     -89.5243003
9.092                0.948942377      -89.678327
9.093                0.948806677     -89.8327618
9.094                0.948670621      -89.987606
9.095                0.948534212     -90.1428606
9.096                0.948397447     -90.2985267
9.097                0.948260328     -90.4546055
9.098                0.948122854      -90.611098
9.099                0.947985026     -90.7680054
9.1                  0.947846844     -90.9253287
9.101                0.947708307     -91.0830692
9.102                0.947569416     -91.2412278
9.103                0.947430171     -91.3998057
9.104                0.947290573      -91.558804
9.105                0.947150621     -91.7182238
9.106                0.947010316     -91.8780662
9.107                0.946869657     -92.0383324
9.108                0.946728646     -92.1990234
9.109                0.946587282     -92.3601403
9.11                 0.946445566     -92.5216842
9.111                0.946303498     -92.6836563
9.112                0.946161078     -92.8460577
9.113                0.946018307     -93.0088894
9.114                0.945875185     -93.1721526
9.115                0.945731713     -93.3358483
9.116                 0.94558789     -93.4999777
9.117                0.945443717     -93.6645419
9.118                0.945299195     -93.8295419
9.119                0.945154324     -93.9949789
9.12                 0.945009105     -94.1608539
9.121                0.944863538     -94.3271681
9.122                0.944717623     -94.4939225
9.123                0.944571362     -94.6611183
9.124                0.944424754     -94.8287565
9.125                0.944277801     -94.9968382
9.126                0.944130503     -95.1653645
9.127                 0.94398286     -95.3343365
9.128                0.943834873     -95.5037552
9.129                0.943686543     -95.6736219
9.13                 0.943537871     -95.8439375
9.131                0.943388857     -96.0147031
9.132                0.943239502     -96.1859198
9.133                0.943089807     -96.3575886
9.134                0.942939773     -96.5297107
9.135                0.942789399     -96.7022872
9.136                0.942638689      -96.875319
9.137                0.942487641     -97.0488073
9.138                0.942336257     -97.2227531
9.139                0.942184538     -97.3971574
9.14                 0.942032485     -97.5720215
9.141                0.941880099     -97.7473462
9.142                0.941727381     -97.9231326
9.143                0.941574331     -98.0993819
9.144                0.941420952      -98.276095
9.145                0.941267243     -98.4532729
9.146                0.941113206     -98.6309169
9.147                0.940958843     -98.8090278
9.148                0.940804154     -98.9876066
9.149                 0.94064914     -99.1666546
9.15                 0.940493803     -99.3461726
9.151                0.940338144     -99.5261617
9.152                0.940182164     -99.7066229
9.153                0.940025865     -99.8875572
9.154                0.939869247     -100.068966
9.155                0.939712313     -100.250849
9.156                0.939555063     -100.433209
9.157                0.939397499     -100.616046
9.158                0.939239623     -100.799361
9.159                0.939081436     -100.983156
9.16                 0.938922938      -101.16743
9.161                0.938764133     -101.352186
9.162                0.938605021     -101.537423
9.163                0.938445605     -101.723144
9.164                0.938285885     -101.909349
9.165                0.938125863     -102.096039
9.166                0.937965542     -102.283215
9.167                0.937804922     -102.470877
9.168                0.937644006     -102.659028
9.169                0.937482795     -102.847668
9.17                 0.937321291     -103.036797
9.171                0.937159496     -103.226417
9.172                0.936997412     -103.416529
9.173                0.936835041     -103.607133
9.174                0.936672385     -103.798231
9.175                0.936509446     -103.989823
9.176                0.936346225      -104.18191
9.177                0.936182725     -104.374494
9.178                0.936018948     -104.567575
9.179                0.935854897     -104.761153
9.18                 0.935690572     -104.955231
9.181                0.935525977     -105.149808
9.182                0.935361114     -105.344886
9.183                0.935195985     -105.540466
9.184                0.935030592     -105.736548
9.185                0.934864938     -105.933133
9.186                0.934699025     -106.130222
9.187                0.934532856     -106.327815
9.188                0.934366432     -106.525915
9.189                0.934199757     -106.724521
9.19                 0.934032833     -106.923634
9.191                0.933865663     -107.123256
9.192                0.933698249     -107.323386
9.193                0.933530593     -107.524026
9.194                  0.9333627     -107.725176
9.195                0.933194571     -107.926838
9.196                0.933026209     -108.129012
9.197                0.932857617     -108.331698
9.198                0.932688797     -108.534898
9.199                0.932519754     -108.738612
9.2                  0.932350489     -108.942841
9.201                0.932181006     -109.147586
9.202                0.932011308     -109.352847
9.203                0.931841398     -109.558626
9.204                0.931671278     -109.764922
9.205                0.931500952     -109.971736
9.206                0.931330424      -110.17907
9.207                0.931159696     -110.386923
9.208                0.930988772     -110.595297
9.209                0.930817656     -110.804192
9.21                 0.930646349     -111.013609
9.211                0.930474857     -111.223548
9.212                0.930303182      -111.43401
9.213                0.930131328     -111.644995
9.214                0.929959298     -111.856504
9.215                0.929787096     -112.068539
9.216                0.929614726     -112.281098
9.217                0.929442192     -112.494183
9.218                0.929269496     -112.707795
9.219                0.929096643     -112.921934
9.22                 0.928923637       -113.1366
9.221                0.928750481     -113.351793
9.222                 0.92857718     -113.567516
9.223                0.928403737     -113.783767
9.224                0.928230157     -114.000547
9.225                0.928056443     -114.217858
9.226                  0.9278826     -114.435698
9.227                0.927708631     -114.654069
9.228                0.927534541     -114.872972
9.229                0.927360334     -115.092406
9.23                 0.927186015     -115.312371
9.231                0.927011587      -115.53287
9.232                0.926837055       -115.7539
9.233                0.926662424     -115.975464
9.234                0.926487698     -116.197561
9.235                0.926312881     -116.420192
9.236                0.926137979     -116.643357
9.237                0.925962995     -116.867056
9.238                0.925787934     -117.091289
9.239                0.925612802     -117.316058
9.24                 0.925437602     -117.541361
9.241                 0.92526234       -117.7672
9.242                 0.92508702     -117.993574
9.243                0.924911648     -118.220484
9.244                0.924736228      -118.44793
9.245                0.924560766     -118.675912
9.246                0.924385265      -118.90443
9.247                0.924209733     -119.133485
9.248                0.924034173     -119.363076
9.249                 0.92385859     -119.593204
9.25                 0.923682991     -119.823869
9.251                 0.92350738      -120.05507
9.252                0.923331763     -120.286808
9.253                0.923156145     -120.519083
9.254                0.922980531     -120.751895
9.255                0.922804927     -120.985244
9.256                0.922629339      -121.21913
9.257                0.922453772     -121.453553
9.258                0.922278232     -121.688513
9.259                0.922102724     -121.924009
9.26                 0.921927255     -122.160042
9.261                0.921751829     -122.396612
9.262                0.921576453     -122.633719
9.263                0.921401133     -122.871361
9.264                0.921225874      -123.10954
9.265                0.921050683     -123.348255
9.266                0.920875565     -123.587506
9.267                0.920700527     -123.827292
9.268                0.920525574     -124.067614
9.269                0.920350714      -124.30847
9.27                 0.920175952     -124.549862
9.271                0.920001293     -124.791788
9.272                0.919826746     -125.034249
9.273                0.919652316     -125.277243
9.274                0.919478009     -125.520771
9.275                0.919303831     -125.764832
9.276                 0.91912979     -126.009427
9.277                0.918955892     -126.254553
9.278                0.918782144     -126.500211
9.279                0.918608551     -126.746401
9.28                 0.918435121     -126.993122
9.281                 0.91826186     -127.240374
9.282                0.918088776     -127.488155
9.283                0.917915875     -127.736466
9.284                0.917743163     -127.985306
9.285                0.917570648     -128.234674
9.286                0.917398337     -128.484569
9.287                0.917226237     -128.734992
9.288                0.917054354     -128.985941
9.289                0.916882696     -129.237416
9.29                  0.91671127     -129.489416
9.291                0.916540082      -129.74194
9.292                0.916369141     -129.994988
9.293                0.916198453     -130.248559
9.294                0.916028026     -130.502651
9.295                0.915857867     -130.757265
9.296                0.915687983     -131.012399
9.297                0.915518382     -131.268053
9.298                0.915349071     -131.524225
9.299                0.915180057     -131.780915
9.3                  0.915011349     -132.038121
9.301                0.914842953     -132.295843
9.302                0.914674878      -132.55408
9.303                 0.91450713     -132.812831
9.304                0.914339718     -133.072094
9.305                0.914172649     -133.331869
9.306                 0.91400593     -133.592155
9.307                0.913839571      -133.85295
9.308                0.913673578     -134.114254
9.309                0.913507959     -134.376064
9.31                 0.913342722     -134.638381
9.311                0.913177875     -134.901202
9.312                0.913013426     -135.164527
9.313                0.912849383     -135.428354
9.314                0.912685753     -135.692682
9.315                0.912522546      -135.95751
9.316                0.912359768     -136.222836
9.317                0.912197428     -136.488659
9.318                0.912035534     -136.754977
9.319                0.911874094      -137.02179
9.32                 0.911713117     -137.289095
9.321                0.911552609     -137.556891
9.322                0.911392581     -137.825177
9.323                0.911233039     -138.093951
9.324                0.911073992     -138.363212
9.325                0.910915449     -138.632958
9.326                0.910757417     -138.903187
9.327                0.910599904     -139.173898
9.328                0.910442921     -139.445089
9.329                0.910286473     -139.716758
9.33                  0.91013057     -139.988904
9.331                0.909975221     -140.261525
9.332                0.909820433     -140.534618
9.333                0.909666215     -140.808184
9.334                0.909512576     -141.082219
9.335                0.909359523     -141.356721
9.336                0.909207066     -141.631689
9.337                0.909055212     -141.907121
9.338                0.908903971     -142.183015
9.339                 0.90875335     -142.459369
9.34                 0.908603359      -142.73618
9.341                0.908454005     -143.013448
9.342                0.908305297     -143.291169
9.343                0.908157243     -143.569342
9.344                0.908009853     -143.847965
9.345                0.907863134     -144.127035
9.346                0.907717096     -144.406551
9.347                0.907571746     -144.686509
9.348                0.907427093     -144.966909
9.349                0.907283146     -145.247747
9.35                 0.907139913     -145.529022
9.351                0.906997402      -145.81073
9.352                0.906855623     -146.092871
9.353                0.906714583      -146.37544
9.354                0.906574292     -146.658437
9.355                0.906434757     -146.941858
9.356                0.906295987     -147.225701
9.357                0.906157991     -147.509964
9.358                0.906020776     -147.794644
9.359                0.905884352     -148.079739
9.36                 0.905748727     -148.365245
9.361                0.905613909     -148.651161
9.362                0.905479907     -148.937484
9.363                0.905346729     -149.224211
9.364                0.905214383     -149.511339
9.365                0.905082878     -149.798866
9.366                0.904952222     -150.086789
9.367                0.904822423     -150.375106
9.368                 0.90469349     -150.663812
9.369                0.904565431     -150.952907
9.37                 0.904438254     -151.242386
9.371                0.904311967     -151.532248
9.372                0.904186579     -151.822488
9.373                0.904062098     -152.113105
9.374                0.903938531     -152.404095
9.375                0.903815887     -152.695455
9.376                0.903694174     -152.987182
9.377                  0.9035734     -153.279274
9.378                0.903453573     -153.571727
9.379                0.903334701     -153.864537
9.38                 0.903216791     -154.157703
9.381                0.903099852     -154.451221
9.382                0.902983892     -154.745087
9.383                0.902868918     -155.039298
9.384                0.902754938     -155.333852
9.385                 0.90264196     -155.628745
9.386                0.902529991     -155.923974
9.387                0.902419039     -156.219535
9.388                0.902309112     -156.515425
9.389                0.902200217     -156.811641
9.39                 0.902092362      -157.10818
9.391                0.901985554     -157.405038
9.392                0.901879799     -157.702211
9.393                0.901775107     -157.999696
9.394                0.901671484      -158.29749
9.395                0.901568937      -158.59559
9.396                0.901467473     -158.893991
9.397                0.901367099      -159.19269
9.398                0.901267823     -159.491684
9.399                0.901169652      -159.79097
9.4                  0.901072591     -160.090542
9.401                0.900976649     -160.390398
9.402                0.900881832     -160.690535
9.403                0.900788146     -160.990948
9.404                0.900695599     -161.291634
9.405                0.900604197     -161.592589
9.406                0.900513945     -161.893809
9.407                0.900424852     -162.195291
9.408                0.900336923     -162.497031
9.409                0.900250164     -162.799025
9.41                 0.900164583     -163.101269
9.411                0.900080183     -163.403759
9.412                0.899996973     -163.706492
9.413                0.899914958     -164.009463
9.414                0.899834143     -164.312669
9.415                0.899754536     -164.616106
9.416                 0.89967614      -164.91977
9.417                0.899598963     -165.223656
9.418                0.899523009     -165.527762
9.419                0.899448285     -165.832082
9.42                 0.899374795     -166.136613
9.421                0.899302545     -166.441351
9.422                 0.89923154     -166.746292
9.423                0.899161785     -167.051432
9.424                0.899093286     -167.356766
9.425                0.899026048     -167.662291
9.426                0.898960074     -167.968002
9.427                0.898895371     -168.273896
9.428                0.898831942     -168.579968
9.429                0.898769793     -168.886214
9.43                 0.898708928     -169.192629
9.431                0.898649351      -169.49921
9.432                0.898591067     -169.805953
9.433                 0.89853408     -170.112853
9.434                0.898478394     -170.419906
9.435                0.898424013     -170.727107
9.436                0.898370941     -171.034453
9.437                0.898319182     -171.341939
9.438                 0.89826874     -171.649561
9.439                0.898219618     -171.957315
9.44                 0.898171819     -172.265196
9.441                0.898125348       -172.5732
9.442                0.898080208     -172.881323
9.443                0.898036401      -173.18956
9.444                0.897993931     -173.497907
9.445                0.897952802     -173.806359
9.446                0.897913015     -174.114913
9.447                0.897874573     -174.423564
9.448                 0.89783748     -174.732307
9.449                0.897801738     -175.041138
9.45                  0.89776735     -175.350053
9.451                0.897734317     -175.659047
9.452                0.897702642     -175.968116
9.453                0.897672328     -176.277255
9.454                0.897643376     -176.586461
9.455                0.897615788     -176.895728
9.456                0.897589566     -177.205052
9.457                0.897564711     -177.514429
9.458                0.897541226     -177.823854
9.459                0.897519112     -178.133323
9.46                 0.897498371     -178.442832
9.461                0.897479002     -178.752375
9.462                0.897461009     -179.061948
9.463                0.897444391     -179.371548
9.464                0.897429149     -179.681169
9.465                0.897415285     -179.990807
9.466                  0.8974028      179.699543
9.467                0.897391693      179.389884
9.468                0.897381965      179.080222
9.469                0.897373617       178.77056
9.47                 0.897366648      178.460904
9.471                 0.89736106      178.151258
9.472                0.897356852      177.841627
9.473                0.897354023      177.532013
9.474                0.897352575      177.222424
9.475                0.897352505      176.912862
9.476                0.897353815      176.603332
9.477                0.897356503      176.293839
9.478                0.897360569      175.984386
9.479                0.897366012       175.67498
9.48                 0.897372831      175.365623
9.481                0.897381026      175.056321
9.482                0.897390594      174.747078
9.483                0.897401535      174.437898
9.484                0.897413848      174.128786
9.485                0.897427531      173.819746
9.486                0.897442583      173.510783
9.487                0.897459001      173.201901
9.488                0.897476784      172.893104
9.489                0.897495931      172.584397
9.49                 0.897516439      172.275784
9.491                0.897538306       171.96727
9.492                 0.89756153      171.658859
9.493                0.897586109      171.350555
9.494                 0.89761204      171.042363
9.495                 0.89763932      170.734287
9.496                0.897667948      170.426331
9.497                 0.89769792        170.1185
9.498                0.897729234      169.810798
9.499                0.897761886       169.50323
9.5                  0.897795873      169.195799
9.501                0.897831193       168.88851
9.502                0.897867842      168.581367
9.503                0.897905816      168.274374
9.504                0.897945113      167.967536
9.505                0.897985729      167.660858
9.506                0.898027659      167.354342
9.507                0.898070901      167.047993
9.508                 0.89811545      166.741816
9.509                0.898161303      166.435815
9.51                 0.898208455      166.129994
9.511                0.898256902      165.824356
9.512                 0.89830664      165.518907
9.513                0.898357665      165.213649
9.514                0.898409972      164.908589
9.515                0.898463556      164.603728
9.516                0.898518414      164.299072
9.517                 0.89857454      163.994624
9.518                0.898631929      163.690389
9.519                0.898690577      163.386371
9.52                 0.898750479      163.082573
9.521                0.898811629      162.778999
9.522                0.898874023      162.475654
9.523                0.898937655      162.172542
9.524                 0.89900252      161.869665
9.525                0.899068612      161.567029
9.526                0.899135926      161.264637
9.527                0.899204457      160.962493
9.528                0.899274198        160.6606
9.529                0.899345145      160.358963
9.53                  0.89941729      160.057586
9.531                 0.89949063      159.756472
9.532                0.899565156      159.455624
9.533                0.899640864      159.155047
9.534                0.899717747      158.854745
9.535                0.899795799       158.55472
9.536                0.899875014      158.254978
9.537                0.899955386       157.95552
9.538                0.900036908      157.656352
9.539                0.900119573      157.357476
9.54                 0.900203376      157.058896
9.541                0.900288309      156.760616
9.542                0.900374366      156.462639
9.543                 0.90046154      156.164969
9.544                0.900549825      155.867609
9.545                0.900639214      155.570563
9.546                0.900729699      155.273834
9.547                0.900821274      154.977425
9.548                0.900913931       154.68134
9.549                0.901007665      154.385582
9.55                 0.901102467      154.090155
9.551                 0.90119833      153.795062
9.552                0.901295248      153.500306
9.553                0.901393212       153.20589
9.554                0.901492216      152.911818
9.555                0.901592253      152.618093
9.556                0.901693314      152.324717
9.557                0.901795392      152.031695
9.558                0.901898481      151.739029
9.559                0.902002571      151.446723
9.56                 0.902107657      151.154779
9.561                0.902213729      150.863201
9.562                 0.90232078      150.571991
9.563                0.902428804      150.281152
9.564                0.902537791      149.990688
9.565                0.902647734      149.700602
9.566                0.902758626      149.410896
9.567                0.902870458      149.121573
9.568                0.902983223      148.832636
9.569                0.903096912      148.544088
9.57                 0.903211518      148.255932
9.571                0.903327033       147.96817
9.572                0.903443448      147.680806
9.573                0.903560756      147.393841
9.574                0.903678948      147.107279
9.575                0.903798018      146.821123
9.576                0.903917955      146.535374
9.577                0.904038753      146.250036
9.578                0.904160403      145.965111
9.579                0.904282897      145.680602
9.58                 0.904406227      145.396511
9.581                0.904530384      145.112841
9.582                0.904655361      144.829594
9.583                0.904781149      144.546772
9.584                 0.90490774      144.264379
9.585                0.905035125      143.982416
9.586                0.905163297      143.700886
9.587                0.905292247      143.419791
9.588                0.905421967      143.139133
9.589                0.905552449      142.858915
9.59                 0.905683683      142.579139
9.591                0.905815663      142.299807
9.592                0.905948379      142.020921
9.593                0.906081824      141.742484
9.594                0.906215988      141.464497
9.595                0.906350865      141.186963
9.596                0.906486444      140.909884
9.597                0.906622719      140.633262
9.598                 0.90675968      140.357098
9.599                 0.90689732      140.081396
9.6                  0.907035629      139.806156
9.601                0.907174601      139.531381