! TOUCHSTONE file generated by CST DESIGN STUDIO
! Date and time: Tue Feb  4 17:46:26 2025
! Project name: C:\Work\MatlabApps\UnitCellOptimizationMatlab\CST\unitcell.cst
! Tree item: Tasks\Sweep1\SPara1\S-Parameters
! Header version: 2024
! Port assignment regex: !\s*Touchstone port\s*([0-9]+)\s*=\s*(CST MWS port|CST DES external port|CST DES block port)\s*(.+)\s* \(\"(.*)\"\)(\s*mode\s*([0-9]+))?.*
! Touchstone port assignment:
! Touchstone port 1 = CST DES external port 1 ("")
# GHz S MA R 50
9                    0.985775783     -67.3910609
9.001                  0.9857455     -67.4866414
9.002                0.985715127     -67.5824472
9.003                0.985684662     -67.6784789
9.004                0.985654107     -67.7747373
9.005                 0.98562346      -67.871223
9.006                0.985592722     -67.9679367
9.007                0.985561893     -68.0648792
9.008                0.985530971      -68.162051
9.009                0.985499957      -68.259453
9.01                  0.98546885     -68.3570858
9.011                0.985437651     -68.4549501
9.012                0.985406358     -68.5530467
9.013                0.985374972     -68.6513762
9.014                0.985343493     -68.7499393
9.015                 0.98531192     -68.8487368
9.016                0.985280253     -68.9477694
9.017                0.985248491     -69.0470378
9.018                0.985216635     -69.1465427
9.019                0.985184684     -69.2462848
9.02                 0.985152638     -69.3462649
9.021                0.985120497     -69.4464837
9.022                 0.98508826     -69.5469419
9.023                0.985055927     -69.6476403
9.024                0.985023498     -69.7485795
9.025                0.984990973     -69.8497603
9.026                0.984958351     -69.9511835
9.027                0.984925632     -70.0528498
9.028                0.984892817     -70.1547599
9.029                0.984859903     -70.2569145
9.03                 0.984826892     -70.3593145
9.031                0.984793783     -70.4619605
9.032                0.984760576     -70.5648534
9.033                0.984727271     -70.6679938
9.034                0.984693867     -70.7713826
9.035                0.984660364     -70.8750204
9.036                0.984626762      -70.978908
9.037                 0.98459306     -71.0830462
9.038                0.984559259     -71.1874358
9.039                0.984525358     -71.2920775
9.04                 0.984491356     -71.3969721
9.041                0.984457254     -71.5021203
9.042                0.984423052      -71.607523
9.043                0.984388748     -71.7131809
9.044                0.984354344     -71.8190947
9.045                0.984319837     -71.9252653
9.046                 0.98428523     -72.0316934
9.047                 0.98425052     -72.1383798
9.048                0.984215708     -72.2453253
9.049                0.984180793     -72.3525307
9.05                 0.984145776     -72.4599967
9.051                0.984110656     -72.5677242
9.052                0.984075432      -72.675714
9.053                0.984040105     -72.7839668
9.054                0.984004675     -72.8924834
9.055                 0.98396914     -73.0012647
9.056                0.983933501     -73.1103114
9.057                0.983897758     -73.2196244
9.058                 0.98386191     -73.3292044
9.059                0.983825958     -73.4390522
9.06                 0.983789899     -73.5491688
9.061                0.983753736     -73.6595547
9.062                0.983717467      -73.770211
9.063                0.983681092     -73.8811384
9.064                 0.98364461     -73.9923377
9.065                0.983608023     -74.1038098
9.066                0.983571329     -74.2155554
9.067                0.983534527     -74.3275754
9.068                0.983497619     -74.4398706
9.069                0.983460603     -74.5524418
9.07                  0.98342348     -74.6652899
9.071                0.983386249     -74.7784157
9.072                0.983348909     -74.8918201
9.073                0.983311462     -75.0055038
9.074                0.983273906     -75.1194678
9.075                0.983236241     -75.2337128
9.076                0.983198467     -75.3482397
9.077                0.983160584     -75.4630493
9.078                0.983122591     -75.5781425
9.079                0.983084488     -75.6935202
9.08                 0.983046276     -75.8091831
9.081                0.983007953     -75.9251322
9.082                 0.98296952     -76.0413683
9.083                0.982930977     -76.1578922
9.084                0.982892322     -76.2747048
9.085                0.982853557      -76.391807
9.086                 0.98281468     -76.5091997
9.087                0.982775692     -76.6268836
9.088                0.982736591     -76.7448597
9.089                0.982697379     -76.8631288
9.09                 0.982658055     -76.9816919
9.091                0.982618618     -77.1005497
9.092                0.982579069     -77.2197032
9.093                0.982539407     -77.3391532
9.094                0.982499632     -77.4589006
9.095                0.982459743     -77.5789463
9.096                0.982419741     -77.6992912
9.097                0.982379626     -77.8199361
9.098                0.982339396      -77.940882
9.099                0.982299053     -78.0621297
9.1                  0.982258595     -78.1836802
9.101                0.982218022     -78.3055342
9.102                0.982177335     -78.4276928
9.103                0.982136533     -78.5501567
9.104                0.982095616      -78.672927
9.105                0.982054584     -78.7960045
9.106                0.982013436       -78.91939
9.107                0.981972173     -79.0430846
9.108                0.981930793     -79.1670891
9.109                0.981889298     -79.2914044
9.11                 0.981847686     -79.4160314
9.111                0.981805958     -79.5409711
9.112                0.981764114     -79.6662243
9.113                0.981722152     -79.7917919
9.114                0.981680074      -79.917675
9.115                0.981637878     -80.0438743
9.116                0.981595565     -80.1703909
9.117                0.981553135     -80.2972256
9.118                0.981510587     -80.4243793
9.119                0.981467921     -80.5518531
9.12                 0.981425137     -80.6796477
9.121                0.981382235     -80.8077642
9.122                0.981339214     -80.9362034
9.123                0.981296075     -81.0649664
9.124                0.981252818     -81.1940539
9.125                0.981209442     -81.3234671
9.126                0.981165946     -81.4532067
9.127                0.981122332     -81.5832737
9.128                0.981078598     -81.7136691
9.129                0.981034745     -81.8443939
9.13                 0.980990773     -81.9754488
9.131                0.980946681      -82.106835
9.132                0.980902469     -82.2385533
9.133                0.980858137     -82.3706047
9.134                0.980813685     -82.5029902
9.135                0.980769113     -82.6357106
9.136                 0.98072442     -82.7687669
9.137                0.980679607     -82.9021602
9.138                0.980634674     -83.0358912
9.139                 0.98058962     -83.1699611
9.14                 0.980544445     -83.3043707
9.141                0.980499149      -83.439121
9.142                0.980453732     -83.5742129
9.143                0.980408194     -83.7096475
9.144                0.980362535     -83.8454256
9.145                0.980316755     -83.9815483
9.146                0.980270853     -84.1180165
9.147                0.980224829     -84.2548312
9.148                0.980178685     -84.3919933
9.149                0.980132418     -84.5295038
9.15                  0.98008603     -84.6673637
9.151                 0.98003952     -84.8055738
9.152                0.979992888     -84.9441353
9.153                0.979946134     -85.0830491
9.154                0.979899258     -85.2223161
9.155                0.979852259     -85.3619373
9.156                0.979805139     -85.5019138
9.157                0.979757897     -85.6422464
9.158                0.979710532     -85.7829361
9.159                0.979663045     -85.9239839
9.16                 0.979615436     -86.0653908
9.161                0.979567704     -86.2071578
9.162                 0.97951985     -86.3492859
9.163                0.979471874     -86.4917759
9.164                0.979423775      -86.634629
9.165                0.979375554     -86.7778461
9.166                 0.97932721     -86.9214281
9.167                0.979278744     -87.0653761
9.168                0.979230155      -87.209691
9.169                0.979181443     -87.3543738
9.17                 0.979132609     -87.4994255
9.171                0.979083653     -87.6448471
9.172                0.979034574     -87.7906395
9.173                0.978985373     -87.9368038
9.174                0.978936049      -88.083341
9.175                0.978886603     -88.2302519
9.176                0.978837034     -88.3775377
9.177                0.978787344     -88.5251992
9.178                 0.97873753     -88.6732375
9.179                0.978687595     -88.8216536
9.18                 0.978637537     -88.9704484
9.181                0.978587357      -89.119623
9.182                0.978537055     -89.2691783
9.183                0.978486631     -89.4191153
9.184                0.978436086      -89.569435
9.185                0.978385418     -89.7201383
9.186                0.978334628     -89.8712264
9.187                0.978283717     -90.0227001
9.188                0.978232684     -90.1745604
9.189                 0.97818153     -90.3268084
9.19                 0.978130254     -90.4794449
9.191                0.978078857     -90.6324711
9.192                0.978027339     -90.7858879
9.193                  0.9779757     -90.9396962
9.194                 0.97792394     -91.0938971
9.195                0.977872059     -91.2484915
9.196                0.977820058     -91.4034804
9.197                0.977767936     -91.5588649
9.198                0.977715694     -91.7146458
9.199                0.977663332     -91.8708242
9.2                   0.97761085      -92.027401
9.201                0.977558248     -92.1843773
9.202                0.977505526      -92.341754
9.203                0.977452685     -92.4995321
9.204                0.977399725     -92.6577125
9.205                0.977346646     -92.8162963
9.206                0.977293448     -92.9752844
9.207                0.977240131     -93.1346778
9.208                0.977186697     -93.2944775
9.209                0.977133144     -93.4546844
9.21                 0.977079473     -93.6152995
9.211                0.977025685     -93.7763238
9.212                0.976971779     -93.9377582
9.213                0.976917756     -94.0996038
9.214                0.976863616     -94.2618615
9.215                 0.97680936     -94.4245322
9.216                0.976754988     -94.5876169
9.217                  0.9767005     -94.7511166
9.218                0.976645896     -94.9150323
9.219                0.976591176     -95.0793648
9.22                 0.976536342     -95.2441152
9.221                0.976481393     -95.4092844
9.222                 0.97642633     -95.5748733
9.223                0.976371152      -95.740883
9.224                0.976315861     -95.9073143
9.225                0.976260457     -96.0741682
9.226                 0.97620494     -96.2414457
9.227                 0.97614931     -96.4091477
9.228                0.976093568     -96.5772751
9.229                0.976037715     -96.7458288
9.23                  0.97598175     -96.9148099
9.231                0.975925674     -97.0842192
9.232                0.975869487     -97.2540577
9.233                0.975813191     -97.4243263
9.234                0.975756785     -97.5950259
9.235                 0.97570027     -97.7661574
9.236                0.975643646     -97.9377219
9.237                0.975586914     -98.1097201
9.238                0.975530074     -98.2821529
9.239                0.975473127     -98.4550214
9.24                 0.975416073     -98.6283265
9.241                0.975358912     -98.8020689
9.242                0.975301647     -98.9762496
9.243                0.975244276     -99.1508696
9.244                  0.9751868     -99.3259297
9.245                 0.97512922     -99.5014308
9.246                0.975071537     -99.6773737
9.247                 0.97501375     -99.8537595
9.248                0.974955862     -100.030589
9.249                0.974897871     -100.207863
9.25                 0.974839779     -100.385582
9.251                0.974781587     -100.563748
9.252                0.974723295     -100.742361
9.253                0.974664904     -100.921421
9.254                0.974606414     -101.100931
9.255                0.974547825      -101.28089
9.256                 0.97448914       -101.4613
9.257                0.974430358     -101.642161
9.258                 0.97437148     -101.823475
9.259                0.974312507     -102.005241
9.26                 0.974253439     -102.187462
9.261                0.974194278     -102.370137
9.262                0.974135023     -102.553268
9.263                0.974075676     -102.736855
9.264                0.974016238     -102.920899
9.265                0.973956708     -103.105401
9.266                0.973897089     -103.290362
9.267                0.973837381     -103.475783
9.268                0.973777584     -103.661664
9.269                  0.9737177     -103.848006
9.27                 0.973657729      -104.03481
9.271                0.973597673     -104.222077
9.272                0.973537531     -104.409807
9.273                0.973477305     -104.598001
9.274                0.973416996      -104.78666
9.275                0.973356605     -104.975785
9.276                0.973296132     -105.165377
9.277                0.973235579     -105.355435
9.278                0.973174947     -105.545962
9.279                0.973114236     -105.736957
9.28                 0.973053447     -105.928422
9.281                0.972992581     -106.120356
9.282                 0.97293164     -106.312761
9.283                0.972870625     -106.505638
9.284                0.972809536     -106.698987
9.285                0.972748374     -106.892809
9.286                 0.97268714     -107.087104
9.287                0.972625837     -107.281874
9.288                0.972564464     -107.477118
9.289                0.972503022     -107.672838
9.29                 0.972441514     -107.869034
9.291                0.972379939     -108.065706
9.292                  0.9723183     -108.262856
9.293                0.972256597     -108.460484
9.294                0.972194831     -108.658591
9.295                0.972133004     -108.857177
9.296                0.972071116     -109.056243
9.297                 0.97200917     -109.255789
9.298                0.971947165     -109.455816
9.299                0.971885104     -109.656324
9.3                  0.971822988     -109.857315
9.301                0.971760818     -110.058788
9.302                0.971698595     -110.260745
9.303                0.971636321     -110.463185
9.304                0.971573996      -110.66611
9.305                0.971511623     -110.869519
9.306                0.971449202     -111.073414
9.307                0.971386735     -111.277794
9.308                0.971324223     -111.482661
9.309                0.971261668     -111.688014
9.31                 0.971199071     -111.893855
9.311                0.971136433     -112.100183
9.312                0.971073757        -112.307
9.313                0.971011042     -112.514305
9.314                0.970948292     -112.722098
9.315                0.970885506     -112.930382
9.316                0.970822688     -113.139155
9.317                0.970759838     -113.348418
9.318                0.970696957     -113.558172
9.319                0.970634048     -113.768417
9.32                 0.970571112     -113.979153
9.321                0.970508151      -114.19038
9.322                0.970445166       -114.4021
9.323                0.970382158     -114.614312
9.324                 0.97031913     -114.827016
9.325                0.970256082     -115.040214
9.326                0.970193018     -115.253904
9.327                0.970129937     -115.468088
9.328                0.970066843     -115.682766
9.329                0.970003736     -115.897938
9.33                 0.969940619     -116.113604
9.331                0.969877493     -116.329765
9.332                 0.96981436      -116.54642
9.333                0.969751222      -116.76357
9.334                 0.96968808     -116.981215
9.335                0.969624937     -117.199355
9.336                0.969561793     -117.417991
9.337                0.969498652     -117.637123
9.338                0.969435515      -117.85675
9.339                0.969372383     -118.076872
9.34                 0.969309259     -118.297491
9.341                0.969246144     -118.518606
9.342                0.969183041     -118.740217
9.343                0.969119951     -118.962324
9.344                0.969056876     -119.184927
9.345                0.968993819     -119.408026
9.346                0.968930781     -119.631622
9.347                0.968867764     -119.855714
9.348                 0.96880477     -120.080302
9.349                0.968741802     -120.305386
9.35                 0.968678862     -120.530967
9.351                 0.96861595     -120.757044
9.352                 0.96855307     -120.983617
9.353                0.968490224     -121.210685
9.354                0.968427414      -121.43825
9.355                0.968364642     -121.666311
9.356                0.968301909     -121.894867
9.357                0.968239219     -122.123918
9.358                0.968176573     -122.353465
9.359                0.968113974     -122.583507
9.36                 0.968051423     -122.814044
9.361                0.967988924     -123.045076
9.362                0.967926478     -123.276602
9.363                0.967864088     -123.508623
9.364                0.967801755     -123.741137
9.365                0.967739482     -123.974145
9.366                0.967677272     -124.207647
9.367                0.967615127     -124.441642
9.368                0.967553049     -124.676129
9.369                 0.96749104     -124.911109
9.37                 0.967429103     -125.146581
9.371                 0.96736724     -125.382544
9.372                0.967305454     -125.618999
9.373                0.967243747     -125.855945
9.374                0.967182121      -126.09338
9.375                 0.96712058     -126.331306
9.376                0.967059124     -126.569722
9.377                0.966997758     -126.808626
9.378                0.966936483     -127.048018
9.379                0.966875302     -127.287899
9.38                 0.966814217     -127.528267
9.381                0.966753231     -127.769121
9.382                0.966692347     -128.010462
9.383                0.966631566     -128.252288
9.384                0.966570892     -128.494599
9.385                0.966510328     -128.737395
9.386                0.966449875     -128.980674
9.387                0.966389537     -129.224435
9.388                0.966329315      -129.46868
9.389                0.966269213     -129.713405
9.39                 0.966209234     -129.958611
9.391                 0.96614938     -130.204297
9.392                0.966089653     -130.450463
9.393                0.966030057     -130.697106
9.394                0.965970594     -130.944227
9.395                0.965911267     -131.191825
9.396                0.965852078     -131.439899
9.397                 0.96579303     -131.688447
9.398                0.965734127     -131.937469
9.399                 0.96567537     -132.186964
9.4                  0.965616763     -132.436932
9.401                0.965558309      -132.68737
9.402                0.965500009     -132.938278
9.403                0.965441868     -133.189656
9.404                0.965383887     -133.441501
9.405                 0.96532607     -133.693814
9.406                0.965268419     -133.946592
9.407                0.965210938     -134.199835
9.408                0.965153629     -134.453541
9.409                0.965096495      -134.70771
9.41                 0.965039538      -134.96234
9.411                0.964982763      -135.21743
9.412                0.964926171     -135.472979
9.413                0.964869766     -135.728985
9.414                0.964813551     -135.985448
9.415                0.964757528     -136.242366
9.416                  0.9647017     -136.499738
9.417                 0.96464607     -136.757561
9.418                0.964590642     -137.015836
9.419                0.964535418     -137.274561
9.42                 0.964480401     -137.533733
9.421                0.964425594     -137.793353
9.422                   0.964371     -138.053418
9.423                0.964316622     -138.313926
9.424                0.964262463     -138.574877
9.425                0.964208527     -138.836269
9.426                0.964154815       -139.0981
9.427                0.964101331     -139.360369
9.428                0.964048078     -139.623074
9.429                0.963995058     -139.886214
9.43                 0.963942276     -140.149786
9.431                0.963889734      -140.41379
9.432                0.963837435     -140.678223
9.433                0.963785381     -140.943084
9.434                0.963733577     -141.208371
9.435                0.963682024     -141.474083
9.436                0.963630727     -141.740217
9.437                0.963579687     -142.006772
9.438                0.963528909     -142.273745
9.439                0.963478394     -142.541136
9.44                 0.963428147     -142.808942
9.441                 0.96337817     -143.077162
9.442                0.963328465     -143.345792
9.443                0.963279037     -143.614832
9.444                0.963229888      -143.88428
9.445                0.963181021     -144.154133
9.446                0.963132439      -144.42439
9.447                0.963084145     -144.695048
9.448                0.963036143     -144.966105
9.449                0.962988434      -145.23756
9.45                 0.962941023     -145.509409
9.451                0.962893912     -145.781652
9.452                0.962847103     -146.054286
9.453                0.962800601     -146.327308
9.454                0.962754408     -146.600717
9.455                0.962708527     -146.874509
9.456                0.962662961     -147.148684
9.457                0.962617713     -147.423239
9.458                0.962572786     -147.698171
9.459                0.962528182     -147.973478
9.46                 0.962483906     -148.249158
9.461                0.962439959     -148.525208
9.462                0.962396344     -148.801626
9.463                0.962353066      -149.07841
9.464                0.962310125     -149.355556
9.465                0.962267526     -149.633063
9.466                0.962225272     -149.910929
9.467                0.962183364      -150.18915
9.468                0.962141806     -150.467724
9.469                0.962100601     -150.746649
9.47                 0.962059752     -151.025921
9.471                0.962019261     -151.305539
9.472                0.961979132       -151.5855
9.473                0.961939366       -151.8658
9.474                0.961899967     -152.146438
9.475                0.961860939     -152.427411
9.476                0.961822282     -152.708716
9.477                   0.961784     -152.990349
9.478                0.961746097      -153.27231
9.479                0.961708574     -153.554594
9.48                 0.961671434     -153.837199
9.481                 0.96163468     -154.120122
9.482                0.961598315      -154.40336
9.483                0.961562341      -154.68691
9.484                0.961526761      -154.97077
9.485                0.961491577     -155.254937
9.486                0.961456793     -155.539406
9.487                 0.96142241     -155.824177
9.488                0.961388432     -156.109245
9.489                 0.96135486     -156.394608
9.49                 0.961321697     -156.680263
9.491                0.961288946     -156.966206
9.492                 0.96125661     -157.252435
9.493                 0.96122469     -157.538946
9.494                0.961193189     -157.825736
9.495                0.961162109     -158.112803
9.496                0.961131454     -158.400142
9.497                0.961101225     -158.687752
9.498                0.961071424     -158.975628
9.499                0.961042054     -159.263768
9.5                  0.961013118     -159.552169
9.501                0.960984616     -159.840826
9.502                0.960956553     -160.129737
9.503                0.960928929     -160.418899
9.504                0.960901748     -160.708308
9.505                 0.96087501     -160.997961
9.506                0.960848719     -161.287854
9.507                0.960822877     -161.577985
9.508                0.960797485      -161.86835
9.509                0.960772545     -162.158945
9.51                 0.960748061     -162.449768
9.511                0.960724033     -162.740814
9.512                0.960700463      -163.03208
9.513                0.960677354     -163.323564
9.514                0.960654707      -163.61526
9.515                0.960632525     -163.907167
9.516                0.960610809      -164.19928
9.517                 0.96058956     -164.491596
9.518                0.960568782     -164.784111
9.519                0.960548474     -165.076822
9.52                  0.96052864     -165.369725
9.521                0.960509281     -165.662817
9.522                0.960490399     -165.956094
9.523                0.960471994     -166.249552
9.524                 0.96045407     -166.543189
9.525                0.960436626     -166.836999
9.526                0.960419666     -167.130981
9.527                 0.96040319     -167.425129
9.528                0.960387199      -167.71944
9.529                0.960371696     -168.013911
9.53                 0.960356681     -168.308538
9.531                0.960342156     -168.603317
9.532                0.960328123     -168.898245
9.533                0.960314582     -169.193317
9.534                0.960301534     -169.488531
9.535                0.960288982     -169.783881
9.536                0.960276926     -170.079365
9.537                0.960265367     -170.374979
9.538                0.960254306     -170.670719
9.539                0.960243745     -170.966581
9.54                 0.960233684     -171.262562
9.541                0.960224124     -171.558656
9.542                0.960215067     -171.854862
9.543                0.960206514     -172.151174
9.544                0.960198464      -172.44759
9.545                0.960190919     -172.744105
9.546                0.960183881     -173.040715
9.547                0.960177348     -173.337416
9.548                0.960171323     -173.634206
9.549                0.960165806     -173.931079
9.55                 0.960160797     -174.228031
9.551                0.960156298      -174.52506
9.552                0.960152308     -174.822161
9.553                0.960148829      -175.11933
9.554                 0.96014586     -175.416563
9.555                0.960143402     -175.713857
9.556                0.960141456     -176.011207
9.557                0.960140022      -176.30861
9.558                  0.9601391     -176.606061
9.559                0.960138691     -176.903557
9.56                 0.960138795     -177.201094
9.561                0.960139411     -177.498667
9.562                0.960140541     -177.796274
9.563                0.960142184     -178.093909
9.564                 0.96014434     -178.391569
9.565                 0.96014701     -178.689251
9.566                0.960150193     -178.986949
9.567                0.960153889     -179.284661
9.568                0.960158099     -179.582382
9.569                0.960162822     -179.880108
9.57                 0.960168058      179.822165
9.571                0.960173807       179.52444
9.572                0.960180068      179.226722
9.573                0.960186841      178.929015
9.574                0.960194127      178.631322
9.575                0.960201924      178.333647
9.576                0.960210233      178.035995
9.577                0.960219052      177.738369
9.578                0.960228381      177.440774
9.579                 0.96023822      177.143212
9.58                 0.960248569      176.845689
9.581                0.960259426      176.548208
9.582                0.960270791      176.250773
9.583                0.960282663      175.953388
9.584                0.960295042      175.656056
9.585                0.960307927      175.358783
9.586                0.960321316      175.061571
9.587                 0.96033521      174.764425
9.588                0.960349607      174.467348
9.589                0.960364507      174.170345
9.59                 0.960379908      173.873419
9.591                0.960395809      173.576574
9.592                 0.96041221      173.279815
9.593                 0.96042911      172.983144
9.594                0.960446506      172.686566
9.595                0.960464399      172.390085
9.596                0.960482787      172.093704
9.597                0.960501668      171.797428
9.598                0.960521042       171.50126
9.599                0.960540907      171.205204
9.6                  0.960561262      170.909263
9.601                0.960582105      170.613443