! TOUCHSTONE file generated by CST DESIGN STUDIO
! Date and time: Tue Feb  4 15:47:15 2025
! Project name: C:\Work\MatlabApps\UnitCellOptimizationMatlab\CST\unitcell.cst
! Tree item: Tasks\Sweep1\SPara1\S-Parameters
! Header version: 2024
! Port assignment regex: !\s*Touchstone port\s*([0-9]+)\s*=\s*(CST MWS port|CST DES external port|CST DES block port)\s*(.+)\s* \(\"(.*)\"\)(\s*mode\s*([0-9]+))?.*
! Touchstone port assignment:
! Touchstone port 1 = CST DES external port 1 ("")
# GHz S MA R 50
9                    0.990198232     -75.7271754
9.001                0.990175131     -75.8396236
9.002                0.990151962     -75.9523429
9.003                0.990128724      -76.065334
9.004                0.990105416     -76.1785979
9.005                0.990082039     -76.2921352
9.006                0.990058592     -76.4059469
9.007                0.990035075     -76.5200336
9.008                0.990011488     -76.6343961
9.009                0.989987831     -76.7490354
9.01                 0.989964104     -76.8639521
9.011                0.989940307     -76.9791471
9.012                0.989916439     -77.0946211
9.013                  0.9898925     -77.2103751
9.014                 0.98986849     -77.3264098
9.015                 0.98984441     -77.4427259
9.016                0.989820258     -77.5593244
9.017                0.989796035      -77.676206
9.018                 0.98977174     -77.7933716
9.019                0.989747374      -77.910822
9.02                 0.989722937     -78.0285579
9.021                0.989698427     -78.1465802
9.022                0.989673846     -78.2648898
9.023                0.989649192     -78.3834874
9.024                0.989624466      -78.502374
9.025                0.989599668     -78.6215502
9.026                0.989574797      -78.741017
9.027                0.989549853     -78.8607751
9.028                0.989524837     -78.9808254
9.029                0.989499748     -79.1011688
9.03                 0.989474586     -79.2218061
9.031                 0.98944935     -79.3427381
9.032                0.989424041     -79.4639656
9.033                0.989398659     -79.5854895
9.034                0.989373203     -79.7073107
9.035                0.989347673     -79.8294299
9.036                 0.98932207     -79.9518481
9.037                0.989296392      -80.074566
9.038                0.989270641     -80.1975846
9.039                0.989244815     -80.3209046
9.04                 0.989218915     -80.4445269
9.041                0.989192941     -80.5684525
9.042                0.989166891      -80.692682
9.043                0.989140767     -80.8172165
9.044                0.989114569     -80.9420567
9.045                0.989088295     -81.0672035
9.046                0.989061946     -81.1926578
9.047                0.989035523     -81.3184204
9.048                0.989009023     -81.4444922
9.049                0.988982449      -81.570874
9.05                 0.988955799     -81.6975668
9.051                0.988929073     -81.8245714
9.052                0.988902272     -81.9518886
9.053                0.988875394     -82.0795193
9.054                0.988848441     -82.2074645
9.055                0.988821412     -82.3357249
9.056                0.988794307     -82.4643015
9.057                0.988767125     -82.5931951
9.058                0.988739867     -82.7224067
9.059                0.988712533      -82.851937
9.06                 0.988685122     -82.9817869
9.061                0.988657634     -83.1119574
9.062                 0.98863007     -83.2424493
9.063                0.988602429     -83.3732636
9.064                 0.98857471      -83.504401
9.065                0.988546915     -83.6358625
9.066                0.988519043     -83.7676489
9.067                0.988491094     -83.8997612
9.068                0.988463067     -84.0322003
9.069                0.988434963      -84.164967
9.07                 0.988406782     -84.2980621
9.071                0.988378523     -84.4314867
9.072                0.988350187     -84.5652416
9.073                0.988321772     -84.6993277
9.074                0.988293281     -84.8337459
9.075                0.988264711     -84.9684971
9.076                0.988236064     -85.1035822
9.077                0.988207338      -85.239002
9.078                0.988178535     -85.3747575
9.079                0.988149653     -85.5108496
9.08                 0.988120694     -85.6472792
9.081                0.988091656     -85.7840471
9.082                 0.98806254     -85.9211544
9.083                0.988033346     -86.0586018
9.084                0.988004073     -86.1963903
9.085                0.987974722     -86.3345207
9.086                0.987945293     -86.4729941
9.087                0.987915785     -86.6118113
9.088                0.987886198     -86.7509732
9.089                0.987856533     -86.8904807
9.09                 0.987826789     -87.0303347
9.091                0.987796967     -87.1705361
9.092                0.987767066     -87.3110859
9.093                0.987737087     -87.4519849
9.094                0.987707028      -87.593234
9.095                0.987676891     -87.7348343
9.096                0.987646675     -87.8767864
9.097                 0.98761638     -88.0190915
9.098                0.987586007     -88.1617503
9.099                0.987555554     -88.3047639
9.1                  0.987525023     -88.4481331
9.101                0.987494413     -88.5918587
9.102                0.987463724     -88.7359418
9.103                0.987432956     -88.8803833
9.104                 0.98740211      -89.025184
9.105                0.987371184     -89.1703449
9.106                 0.98734018     -89.3158669
9.107                0.987309096     -89.4617508
9.108                0.987277934     -89.6079977
9.109                0.987246693     -89.7546084
9.11                 0.987215373     -89.9015838
9.111                0.987183975     -90.0489248
9.112                0.987152497     -90.1966324
9.113                0.987120941     -90.3447075
9.114                0.987089306     -90.4931509
9.115                0.987057593     -90.6419636
9.116                  0.9870258     -90.7911466
9.117                 0.98699393     -90.9407006
9.118                 0.98696198     -91.0906266
9.119                0.986929952     -91.2409256
9.12                 0.986897846     -91.3915984
9.121                0.986865661      -91.542646
9.122                0.986833398     -91.6940692
9.123                0.986801056      -91.845869
9.124                0.986768637     -91.9980462
9.125                0.986736139     -92.1506019
9.126                0.986703563     -92.3035368
9.127                0.986670908     -92.4568519
9.128                0.986638176     -92.6105481
9.129                0.986605366     -92.7646263
9.13                 0.986572479     -92.9190873
9.131                0.986539513     -93.0739322
9.132                 0.98650647     -93.2291618
9.133                 0.98647335      -93.384777
9.134                0.986440152     -93.5407787
9.135                0.986406877     -93.6971678
9.136                0.986373524     -93.8539452
9.137                0.986340095     -94.0111118
9.138                0.986306588     -94.1686685
9.139                0.986273005     -94.3266161
9.14                 0.986239345     -94.4849557
9.141                0.986205609      -94.643688
9.142                0.986171796     -94.8028139
9.143                0.986137906     -94.9623344
9.144                0.986103941     -95.1222503
9.145                  0.9860699     -95.2825625
9.146                0.986035782     -95.4432719
9.147                0.986001589     -95.6043794
9.148                0.985967321     -95.7658859
9.149                0.985932977     -95.9277921
9.15                 0.985898558     -96.0900991
9.151                0.985864064     -96.2528077
9.152                0.985829495     -96.4159187
9.153                0.985794852      -96.579433
9.154                0.985760134     -96.7433516
9.155                0.985725342     -96.9076752
9.156                0.985690475     -97.0724047
9.157                0.985655535      -97.237541
9.158                0.985620522     -97.4030849
9.159                0.985585435     -97.5690373
9.16                 0.985550274     -97.7353991
9.161                0.985515041     -97.9021711
9.162                0.985479735     -98.0693541
9.163                0.985444357     -98.2369491
9.164                0.985408906     -98.4049568
9.165                0.985373384      -98.573378
9.166                 0.98533779     -98.7422137
9.167                0.985302124     -98.9114646
9.168                0.985266387     -99.0811317
9.169                0.985230579     -99.2512156
9.17                   0.9851947     -99.4217173
9.171                0.985158752     -99.5926376
9.172                0.985122733     -99.7639773
9.173                0.985086644     -99.9357371
9.174                0.985050486     -100.107918
9.175                0.985014259     -100.280521
9.176                0.984977962     -100.453546
9.177                0.984941598     -100.626995
9.178                0.984905165     -100.800868
9.179                0.984868664     -100.975166
9.18                 0.984832096      -101.14989
9.181                 0.98479546      -101.32504
9.182                0.984758758     -101.500618
9.183                0.984721989     -101.676624
9.184                0.984685155     -101.853059
9.185                0.984648254     -102.029924
9.186                0.984611288      -102.20722
9.187                0.984574257     -102.384946
9.188                0.984537162     -102.563105
9.189                0.984500002     -102.741696
9.19                 0.984462779     -102.920721
9.191                0.984425492      -103.10018
9.192                0.984388143     -103.280074
9.193                0.984350731     -103.460404
9.194                0.984313256      -103.64117
9.195                0.984275721     -103.822374
9.196                0.984238123     -104.004015
9.197                0.984200466     -104.186095
9.198                0.984162748     -104.368615
9.199                 0.98412497     -104.551574
9.2                  0.984087133     -104.734975
9.201                0.984049237     -104.918816
9.202                0.984011282       -105.1031
9.203                 0.98397327     -105.287827
9.204                0.983935201     -105.472997
9.205                0.983897074     -105.658611
9.206                0.983858891      -105.84467
9.207                0.983820653     -106.031175
9.208                0.983782359     -106.218126
9.209                0.983744011     -106.405524
9.21                 0.983705608     -106.593369
9.211                0.983667152     -106.781662
9.212                0.983628643     -106.970404
9.213                0.983590081     -107.159595
9.214                0.983551468     -107.349236
9.215                0.983512803     -107.539328
9.216                0.983474088     -107.729871
9.217                0.983435322     -107.920865
9.218                0.983396507     -108.112312
9.219                0.983357644     -108.304212
9.22                 0.983318732     -108.496565
9.221                0.983279772     -108.689373
9.222                0.983240766     -108.882635
9.223                0.983201714     -109.076352
9.224                0.983162616     -109.270525
9.225                0.983123473     -109.465154
9.226                0.983084285      -109.66024
9.227                0.983045055     -109.855783
9.228                0.983005781     -110.051785
9.229                0.982966466     -110.248244
9.23                 0.982927109     -110.445162
9.231                0.982887711      -110.64254
9.232                0.982848274     -110.840377
9.233                0.982808797     -111.038675
9.234                0.982769282     -111.237433
9.235                0.982729729     -111.436653
9.236                0.982690139     -111.636334
9.237                0.982650514     -111.836477
9.238                0.982610853     -112.037082
9.239                0.982571157     -112.238151
9.24                 0.982531428     -112.439683
9.241                0.982491666     -112.641678
9.242                0.982451872     -112.844138
9.243                0.982412046     -113.047062
9.244                0.982372191     -113.250451
9.245                0.982332305     -113.454306
9.246                0.982292392     -113.658625
9.247                 0.98225245     -113.863411
9.248                0.982212481     -114.068663
9.249                0.982172487     -114.274381
9.25                 0.982132467     -114.480567
9.251                0.982092423     -114.687219
9.252                0.982052356     -114.894339
9.253                0.982012267     -115.101927
9.254                0.981972156     -115.309983
9.255                0.981932025     -115.518507
9.256                0.981891874     -115.727499
9.257                0.981851705      -115.93696
9.258                0.981811518      -116.14689
9.259                0.981771315      -116.35729
9.26                 0.981731096     -116.568158
9.261                0.981690863     -116.779497
9.262                0.981650616     -116.991305
9.263                0.981610356     -117.203583
9.264                0.981570085     -117.416331
9.265                0.981529804     -117.629549
9.266                0.981489514     -117.843237
9.267                0.981449215     -118.057396
9.268                0.981408909     -118.272026
9.269                0.981368596     -118.487126
9.27                 0.981328279     -118.702697
9.271                0.981287958     -118.918739
9.272                0.981247634     -119.135251
9.273                0.981207308     -119.352235
9.274                0.981166982     -119.569689
9.275                0.981126656     -119.787614
9.276                0.981086333      -120.00601
9.277                0.981046012     -120.224877
9.278                0.981005695     -120.444215
9.279                0.980965383     -120.664024
9.28                 0.980925078     -120.884304
9.281                0.980884781     -121.105054
9.282                0.980844492     -121.326275
9.283                0.980804214     -121.547966
9.284                0.980763947     -121.770128
9.285                0.980723693     -121.992761
9.286                0.980683452     -122.215863
9.287                0.980643227     -122.439436
9.288                0.980603018     -122.663478
9.289                0.980562826      -122.88799
9.29                 0.980522654     -123.112971
9.291                0.980482502     -123.338422
9.292                0.980442371     -123.564342
9.293                0.980402263      -123.79073
9.294                 0.98036218     -124.017587
9.295                0.980322122     -124.244913
9.296                0.980282091     -124.472706
9.297                0.980242088     -124.700967
9.298                0.980202115     -124.929695
9.299                0.980162173     -125.158891
9.3                  0.980122264     -125.388552
9.301                0.980082388     -125.618681
9.302                0.980042547     -125.849275
9.303                0.980002743     -126.080334
9.304                0.979962977     -126.311859
9.305                0.979923251     -126.543848
9.306                0.979883565     -126.776301
9.307                0.979843922     -127.009218
9.308                0.979804323     -127.242599
9.309                0.979764769     -127.476442
9.31                 0.979725261     -127.710747
9.311                0.979685802     -127.945514
9.312                0.979646393     -128.180742
9.313                0.979607035      -128.41643
9.314                 0.97956773     -128.652579
9.315                0.979528479     -128.889186
9.316                0.979489284     -129.126253
9.317                0.979450147     -129.363777
9.318                0.979411068     -129.601759
9.319                 0.97937205     -129.840197
9.32                 0.979333094     -130.079092
9.321                0.979294201     -130.318442
9.322                0.979255374     -130.558246
9.323                0.979216613     -130.798504
9.324                0.979177921     -131.039215
9.325                0.979139298     -131.280379
9.326                0.979100748     -131.521994
9.327                 0.97906227     -131.764059
9.328                0.979023867     -132.006574
9.329                0.978985541     -132.249538
9.33                 0.978947293      -132.49295
9.331                0.978909125     -132.736809
9.332                0.978871038     -132.981114
9.333                0.978833034     -133.225865
9.334                0.978795115     -133.471059
9.335                0.978757282     -133.716697
9.336                0.978719537     -133.962778
9.337                0.978681882     -134.209299
9.338                0.978644319     -134.456261
9.339                0.978606848     -134.703661
9.34                 0.978569473       -134.9515
9.341                0.978532194     -135.199776
9.342                0.978495013     -135.448487
9.343                0.978457932     -135.697634
9.344                0.978420953     -135.947213
9.345                0.978384078     -136.197225
9.346                0.978347308     -136.447668
9.347                0.978310644     -136.698542
9.348                 0.97827409     -136.949843
9.349                0.978237646     -137.201572
9.35                 0.978201314     -137.453728
9.351                0.978165096     -137.706308
9.352                0.978128994     -137.959311
9.353                0.978093009     -138.212737
9.354                0.978057144     -138.466583
9.355                0.978021399     -138.720849
9.356                0.977985778     -138.975532
9.357                0.977950281     -139.230632
9.358                 0.97791491     -139.486148
9.359                0.977879668     -139.742076
9.36                 0.977844556     -139.998417
9.361                0.977809575     -140.255169
9.362                0.977774729     -140.512329
9.363                0.977740017     -140.769897
9.364                0.977705443     -141.027871
9.365                0.977671008     -141.286249
9.366                0.977636714      -141.54503
9.367                0.977602562     -141.804212
9.368                0.977568555     -142.063793
9.369                0.977534694     -142.323772
9.37                 0.977500981     -142.584147
9.371                0.977467418     -142.844916
9.372                0.977434007     -143.106078
9.373                0.977400749      -143.36763
9.374                0.977367647     -143.629571
9.375                0.977334702       -143.8919
9.376                0.977301916     -144.154613
9.377                 0.97726929      -144.41771
9.378                0.977236828     -144.681189
9.379                0.977204529     -144.945047
9.38                 0.977172397     -145.209283
9.381                0.977140434     -145.473894
9.382                 0.97710864      -145.73888
9.383                0.977077017     -146.004237
9.384                0.977045569     -146.269964
9.385                0.977014295     -146.536059
9.386                0.976983199      -146.80252
9.387                0.976952282     -147.069344
9.388                0.976921545      -147.33653
9.389                0.976890991     -147.604075
9.39                 0.976860621     -147.871977
9.391                0.976830438     -148.140235
9.392                0.976800442     -148.408846
9.393                0.976770636     -148.677807
9.394                0.976741022     -148.947117
9.395                0.976711601     -149.216773
9.396                0.976682374     -149.486774
9.397                0.976653345     -149.757116
9.398                0.976624514     -150.027797
9.399                0.976595884     -150.298816
9.4                  0.976567455     -150.570169
9.401                0.976539231     -150.841855
9.402                0.976511212     -151.113871
9.403                  0.9764834     -151.386215
9.404                0.976455798     -151.658884
9.405                0.976428406     -151.931875
9.406                0.976401226     -152.205187
9.407                0.976374261     -152.478817
9.408                0.976347512     -152.752762
9.409                 0.97632098     -153.027019
9.41                 0.976294667     -153.301587
9.411                0.976268576     -153.576463
9.412                0.976242707     -153.851643
9.413                0.976217062     -154.127126
9.414                0.976191643     -154.402909
9.415                0.976166452     -154.678989
9.416                 0.97614149     -154.955364
9.417                0.976116758      -155.23203
9.418                0.976092259     -155.508986
9.419                0.976067995     -155.786227
9.42                 0.976043965     -156.063753
9.421                0.976020173     -156.341559
9.422                 0.97599662     -156.619644
9.423                0.975973307     -156.898004
9.424                0.975950236     -157.176636
9.425                0.975927409     -157.455538
9.426                0.975904826     -157.734706
9.427                 0.97588249     -158.014139
9.428                0.975860402     -158.293833
9.429                0.975838563     -158.573784
9.43                 0.975816975     -158.853991
9.431                 0.97579564      -159.13445
9.432                0.975774558     -159.415159
9.433                0.975753732     -159.696114
9.434                0.975733163     -159.977312
9.435                0.975712851      -160.25875
9.436                0.975692799     -160.540426
9.437                0.975673009     -160.822336
9.438                 0.97565348     -161.104477
9.439                0.975634215     -161.386846
9.44                 0.975615215      -161.66944
9.441                0.975596481     -161.952257
9.442                0.975578015     -162.235292
9.443                0.975559818     -162.518542
9.444                0.975541891     -162.802005
9.445                0.975524236     -163.085677
9.446                0.975506853     -163.369556
9.447                0.975489744     -163.653637
9.448                 0.97547291     -163.937918
9.449                0.975456352     -164.222396
9.45                 0.975440072     -164.507067
9.451                0.975424071     -164.791927
9.452                0.975408349     -165.076975
9.453                0.975392908     -165.362206
9.454                 0.97537775     -165.647617
9.455                0.975362874     -165.933205
9.456                0.975348283     -166.218966
9.457                0.975333977     -166.504898
9.458                0.975319957     -166.790996
9.459                0.975306224     -167.077258
9.46                  0.97529278      -167.36368
9.461                0.975279625     -167.650258
9.462                 0.97526676      -167.93699
9.463                0.975254186     -168.223872
9.464                0.975241905     -168.510901
9.465                0.975229916     -168.798072
9.466                0.975218221     -169.085383
9.467                0.975206821      -169.37283
9.468                0.975195716      -169.66041
9.469                0.975184908     -169.948119
9.47                 0.975174397     -170.235954
9.471                0.975164184     -170.523911
9.472                0.975154269     -170.811987
9.473                0.975144654     -171.100179
9.474                0.975135339     -171.388482
9.475                0.975126325     -171.676893
9.476                0.975117612     -171.965409
9.477                0.975109201     -172.254026
9.478                0.975101093     -172.542741
9.479                0.975093289      -172.83155
9.48                 0.975085788     -173.120449
9.481                0.975078592     -173.409435
9.482                0.975071701     -173.698505
9.483                0.975065116     -173.987654
9.484                0.975058836      -174.27688
9.485                0.975052863     -174.566178
9.486                0.975047197     -174.855546
9.487                0.975041839     -175.144978
9.488                0.975036788     -175.434473
9.489                0.975032045     -175.724026
9.49                 0.975027611     -176.013633
9.491                0.975023486     -176.303291
9.492                 0.97501967     -176.592997
9.493                0.975016163     -176.882746
9.494                0.975012966     -177.172536
9.495                0.975010079     -177.462362
9.496                0.975007502      -177.75222
9.497                0.975005236     -178.042108
9.498                 0.97500328     -178.332021
9.499                0.975001635     -178.621957
9.5                  0.975000301      -178.91191
9.501                0.974999277     -179.201878
9.502                0.974998565     -179.491857
9.503                0.974998164     -179.781843
9.504                0.974998074      179.928167
9.505                0.974998295      179.638177
9.506                0.974998827       179.34819
9.507                 0.97499967      179.058212
9.508                0.975000824      178.768244
9.509                0.975002289       178.47829
9.51                 0.975004065      178.188355
9.511                0.975006152      177.898442
9.512                0.975008549      177.608554
9.513                0.975011256      177.318695
9.514                0.975014274       177.02887
9.515                0.975017601      176.739081
9.516                0.975021238      176.449331
9.517                0.975025185      176.159626
9.518                0.975029441      175.869968
9.519                0.975034005      175.580361
9.52                 0.975038878      175.290808
9.521                0.975044059      175.001314
9.522                0.975049548      174.711881
9.523                0.975055344      174.422514
9.524                0.975061447      174.133216
9.525                0.975067857      173.843991
9.526                0.975074572      173.554842
9.527                0.975081593      173.265772
9.528                0.975088919      172.976786
9.529                0.975096549      172.687887
9.53                 0.975104483      172.399079
9.531                 0.97511272      172.110364
9.532                 0.97512126      171.821748
9.533                0.975130102      171.533232
9.534                0.975139245      171.244821
9.535                0.975148689      170.956519
9.536                0.975158433      170.668328
9.537                0.975168476      170.380252
9.538                0.975178818      170.092296
9.539                0.975189457      169.804461
9.54                 0.975200394      169.516753
9.541                0.975211627      169.229173
9.542                0.975223155      168.941727
9.543                0.975234977      168.654416
9.544                0.975247094      168.367245
9.545                0.975259503      168.080218
9.546                0.975272204      167.793336
9.547                0.975285196      167.506605
9.548                0.975298478      167.220027
9.549                0.975312049      166.933606
9.55                 0.975325908      166.647345
9.551                0.975340055      166.361247
9.552                0.975354487      166.075316
9.553                0.975369205      165.789556
9.554                0.975384206      165.503969
9.555                 0.97539949      165.218558
9.556                0.975415057      164.933328
9.557                0.975430904      164.648281
9.558                 0.97544703      164.363421
9.559                0.975463435      164.078752
9.56                 0.975480117      163.794275
9.561                0.975497076      163.509995
9.562                0.975514309      163.225914
9.563                0.975531816      162.942037
9.564                0.975549595      162.658365
9.565                0.975567646      162.374903
9.566                0.975585966      162.091654
9.567                0.975604556       161.80862
9.568                0.975623412      161.525805
9.569                0.975642535      161.243212
9.57                 0.975661922      160.960844
9.571                0.975681573      160.678704
9.572                0.975701486      160.396795
9.573                0.975721659       160.11512
9.574                0.975742092      159.833683
9.575                0.975762783      159.552486
9.576                 0.97578373      159.271533
9.577                0.975804932      158.990825
9.578                0.975826388      158.710367
9.579                0.975848096      158.430162
9.58                 0.975870055      158.150211
9.581                0.975892263      157.870519
9.582                0.975914718      157.591088
9.583                 0.97593742      157.311921
9.584                0.975960366       157.03302
9.585                0.975983556      156.754389
9.586                0.976006987      156.476031
9.587                0.976030659      156.197948
9.588                0.976054568      155.920143
9.589                0.976078715      155.642619
9.59                 0.976103097      155.365379
9.591                0.976127713      155.088425
9.592                0.976152561       154.81176
9.593                0.976177639      154.535388
9.594                0.976202947      154.259309
9.595                0.976228482      153.983528
9.596                0.976254242      153.708047
9.597                0.976280226      153.432868
9.598                0.976306433      153.157994
9.599                 0.97633286      152.883428
9.6                  0.976359506      152.609172
9.601                0.976386369      152.335229