! TOUCHSTONE file generated by CST DESIGN STUDIO
! Date and time: Tue Feb  4 17:12:56 2025
! Project name: C:\Work\MatlabApps\UnitCellOptimizationMatlab\CST\unitcell.cst
! Tree item: Tasks\Sweep1\SPara1\S-Parameters
! Header version: 2024
! Port assignment regex: !\s*Touchstone port\s*([0-9]+)\s*=\s*(CST MWS port|CST DES external port|CST DES block port)\s*(.+)\s* \(\"(.*)\"\)(\s*mode\s*([0-9]+))?.*
! Touchstone port assignment:
! Touchstone port 1 = CST DES external port 1 ("")
# GHz S MA R 50
9                    0.976224728     -71.5271146
9.001                0.976174139     -71.6351211
9.002                0.976123436      -71.743401
9.003                 0.97607262     -71.8519555
9.004                0.976021689     -71.9607853
9.005                0.975970643     -72.0698913
9.006                0.975919482     -72.1792743
9.007                0.975868206     -72.2889354
9.008                0.975816814     -72.3988754
9.009                0.975765305     -72.5090952
9.01                  0.97571368     -72.6195956
9.011                0.975661937     -72.7303776
9.012                0.975610077     -72.8414421
9.013                0.975558098     -72.9527899
9.014                0.975506001     -73.0644221
9.015                0.975453785     -73.1763394
9.016                 0.97540145     -73.2885428
9.017                0.975348995     -73.4010333
9.018                0.975296419     -73.5138117
9.019                0.975243724     -73.6268789
9.02                 0.975190907      -73.740236
9.021                0.975137968     -73.8538837
9.022                0.975084908      -73.967823
9.023                0.975031725      -74.082055
9.024                 0.97497842     -74.1965804
9.025                0.974924991     -74.3114002
9.026                0.974871439     -74.4265154
9.027                0.974817763     -74.5419269
9.028                0.974763963     -74.6576356
9.029                0.974710037     -74.7736426
9.03                 0.974655987     -74.8899486
9.031                0.974601811     -75.0065548
9.032                0.974547508      -75.123462
9.033                0.974493079     -75.2406712
9.034                0.974438524     -75.3581833
9.035                0.974383841     -75.4759994
9.036                 0.97432903     -75.5941203
9.037                0.974274091      -75.712547
9.038                0.974219023     -75.8312806
9.039                0.974163827     -75.9503219
9.04                 0.974108501      -76.069672
9.041                0.974053045     -76.1893318
9.042                0.973997459     -76.3093024
9.043                0.973941742     -76.4295845
9.044                0.973885895     -76.5501794
9.045                0.973829915     -76.6710879
9.046                0.973773804      -76.792311
9.047                0.973717561     -76.9138498
9.048                0.973661185     -77.0357051
9.049                0.973604676     -77.1578781
9.05                 0.973548034     -77.2803697
9.051                0.973491257     -77.4031808
9.052                0.973434346     -77.5263126
9.053                0.973377301      -77.649766
9.054                0.973320121      -77.773542
9.055                0.973262805     -77.8976417
9.056                0.973205353     -78.0220659
9.057                0.973147765     -78.1468158
9.058                 0.97309004     -78.2718924
9.059                0.973032178     -78.3972967
9.06                 0.972974179     -78.5230296
9.061                0.972916042     -78.6490923
9.062                0.972857767     -78.7754857
9.063                0.972799353     -78.9022109
9.064                0.972740801     -79.0292689
9.065                0.972682108     -79.1566608
9.066                0.972623277     -79.2843875
9.067                0.972564305     -79.4124501
9.068                0.972505192     -79.5408497
9.069                0.972445939     -79.6695872
9.07                 0.972386545     -79.7986638
9.071                0.972327009     -79.9280804
9.072                0.972267331     -80.0578382
9.073                 0.97220751     -80.1879381
9.074                0.972147547     -80.3183813
9.075                0.972087441     -80.4491687
9.076                0.972027192     -80.5803014
9.077                0.971966799     -80.7117805
9.078                0.971906261     -80.8436071
9.079                 0.97184558     -80.9757822
9.08                 0.971784753     -81.1083068
9.081                0.971723782     -81.2411821
9.082                0.971662665     -81.3744091
9.083                0.971601402     -81.5079888
9.084                0.971539993     -81.6419224
9.085                0.971478437     -81.7762109
9.086                0.971416735     -81.9108554
9.087                0.971354886     -82.0458569
9.088                0.971292889     -82.1812166
9.089                0.971230744     -82.3169356
9.09                 0.971168452     -82.4530148
9.091                0.971106011     -82.5894555
9.092                0.971043421     -82.7262586
9.093                0.970980682     -82.8634253
9.094                0.970917794     -83.0009566
9.095                0.970854757     -83.1388537
9.096                0.970791569     -83.2771176
9.097                0.970728231     -83.4157495
9.098                0.970664743     -83.5547504
9.099                0.970601104     -83.6941215
9.1                  0.970537314     -83.8338637
9.101                0.970473373     -83.9739783
9.102                 0.97040928     -84.1144664
9.103                0.970345035      -84.255329
9.104                0.970280638     -84.3965672
9.105                0.970216089     -84.5381822
9.106                0.970151388     -84.6801751
9.107                0.970086533     -84.8225469
9.108                0.970021525     -84.9652988
9.109                0.969956364     -85.1084319
9.11                 0.969891049     -85.2519473
9.111                0.969825581     -85.3958462
9.112                0.969759958     -85.5401295
9.113                0.969694181     -85.6847986
9.114                 0.96962825     -85.8298544
9.115                0.969562164     -85.9752982
9.116                0.969495923     -86.1211309
9.117                0.969429528     -86.2673538
9.118                0.969362976      -86.413968
9.119                 0.96929627     -86.5609746
9.12                 0.969229407     -86.7083747
9.121                0.969162389     -86.8561694
9.122                0.969095215     -87.0043599
9.123                0.969027885     -87.1529473
9.124                0.968960398     -87.3019328
9.125                0.968892755     -87.4513174
9.126                0.968824956     -87.6011023
9.127                0.968756999     -87.7512886
9.128                0.968688886     -87.9018775
9.129                0.968620616     -88.0528701
9.13                 0.968552188     -88.2042675
9.131                0.968483604     -88.3560708
9.132                0.968414862     -88.5082813
9.133                0.968345962        -88.6609
9.134                0.968276905      -88.813928
9.135                 0.96820769     -88.9673666
9.136                0.968138318     -89.1212167
9.137                0.968068788     -89.2754797
9.138                  0.9679991     -89.4301566
9.139                0.967929254     -89.5852485
9.14                  0.96785925     -89.7407566
9.141                0.967789088      -89.896682
9.142                0.967718768     -90.0530259
9.143                 0.96764829     -90.2097893
9.144                0.967577654     -90.3669736
9.145                 0.96750686     -90.5245796
9.146                0.967435907     -90.6826087
9.147                0.967364797      -90.841062
9.148                0.967293529     -90.9999405
9.149                0.967222102     -91.1592455
9.15                 0.967150518      -91.318978
9.151                0.967078775     -91.4791392
9.152                0.967006875     -91.6397302
9.153                0.966934816     -91.8007522
9.154                  0.9668626     -91.9622063
9.155                0.966790226     -92.1240936
9.156                0.966717695     -92.2864153
9.157                0.966645006     -92.4491725
9.158                0.966572159     -92.6123663
9.159                0.966499155     -92.7759979
9.16                 0.966425994     -92.9400684
9.161                0.966352676     -93.1045789
9.162                0.966279201     -93.2695305
9.163                0.966205569     -93.4349245
9.164                0.966131781     -93.6007618
9.165                0.966057836     -93.7670436
9.166                0.965983735     -93.9337711
9.167                0.965909478     -94.1009454
9.168                0.965835065     -94.2685676
9.169                0.965760496     -94.4366387
9.17                 0.965685772       -94.60516
9.171                0.965610893     -94.7741326
9.172                0.965535859     -94.9435575
9.173                 0.96546067     -95.1134359
9.174                0.965385327     -95.2837688
9.175                 0.96530983     -95.4545575
9.176                0.965234179     -95.6258029
9.177                0.965158375     -95.7975063
9.178                0.965082417     -95.9696686
9.179                0.965006307     -96.1422911
9.18                 0.964930044     -96.3153747
9.181                 0.96485363     -96.4889207
9.182                0.964777063       -96.66293
9.183                0.964700345     -96.8374038
9.184                0.964623476     -97.0123432
9.185                0.964546457     -97.1877493
9.186                0.964469287     -97.3636231
9.187                0.964391968     -97.5399657
9.188                  0.9643145     -97.7167781
9.189                0.964236883     -97.8940616
9.19                 0.964159117     -98.0718171
9.191                0.964081204     -98.2500457
9.192                0.964003144     -98.4287484
9.193                0.963924937     -98.6079264
9.194                0.963846583     -98.7875807
9.195                0.963768084     -98.9677123
9.196                 0.96368944     -99.1483223
9.197                0.963610652     -99.3294118
9.198                0.963531719     -99.5109817
9.199                0.963452644     -99.6930332
9.2                  0.963373425     -99.8755671
9.201                0.963294065     -100.058585
9.202                0.963214563     -100.242087
9.203                 0.96313492     -100.426075
9.204                0.963055137     -100.610549
9.205                0.962975216     -100.795511
9.206                0.962895155     -100.980962
9.207                0.962814957     -101.166903
9.208                0.962734621     -101.353334
9.209                0.962654149     -101.540256
9.21                 0.962573542     -101.727672
9.211                  0.9624928     -101.915581
9.212                0.962411924     -102.103985
9.213                0.962330915     -102.292884
9.214                0.962249774      -102.48228
9.215                0.962168501     -102.672173
9.216                0.962087098     -102.862565
9.217                0.962005565     -103.053456
9.218                0.961923904     -103.244848
9.219                0.961842115     -103.436741
9.22                 0.961760199     -103.629136
9.221                0.961678158     -103.822035
9.222                0.961595992     -104.015437
9.223                0.961513702     -104.209344
9.224                0.961431289     -104.403758
9.225                0.961348755     -104.598678
9.226                  0.9612661     -104.794106
9.227                0.961183326     -104.990042
9.228                0.961100433     -105.186488
9.229                0.961017423     -105.383445
9.23                 0.960934298     -105.580912
9.231                0.960851057     -105.778892
9.232                0.960767702     -105.977384
9.233                0.960684236      -106.17639
9.234                0.960600657     -106.375911
9.235                0.960516969     -106.575947
9.236                0.960433172       -106.7765
9.237                0.960349268     -106.977569
9.238                0.960265258     -107.179157
9.239                0.960181143     -107.381263
9.24                 0.960096924     -107.583888
9.241                0.960012604     -107.787034
9.242                0.959928183       -107.9907
9.243                0.959843662     -108.194889
9.244                0.959759044     -108.399599
9.245                 0.95967433     -108.604833
9.246                0.959589521     -108.810591
9.247                0.959504618     -109.016874
9.248                0.959419624     -109.223682
9.249                0.959334539     -109.431016
9.25                 0.959249366     -109.638877
9.251                0.959164106     -109.847265
9.252                0.959078761     -110.056182
9.253                0.958993332     -110.265627
9.254                0.958907821     -110.475602
9.255                0.958822229     -110.686106
9.256                0.958736559     -110.897142
9.257                0.958650812     -111.108708
9.258                0.958564989     -111.320807
9.259                0.958479094     -111.533438
9.26                 0.958393127     -111.746603
9.261                 0.95830709       -111.9603
9.262                0.958220985     -112.174533
9.263                0.958134814       -112.3893
9.264                0.958048579     -112.604602
9.265                0.957962282      -112.82044
9.266                0.957875925     -113.036814
9.267                 0.95778951     -113.253726
9.268                0.957703038     -113.471174
9.269                0.957616513     -113.689161
9.27                 0.957529935     -113.907685
9.271                0.957443307     -114.126749
9.272                0.957356631     -114.346351
9.273                 0.95726991     -114.566494
9.274                0.957183145     -114.787176
9.275                0.957096338     -115.008398
9.276                0.957009492     -115.230161
9.277                0.956922609     -115.452466
9.278                0.956835692     -115.675312
9.279                0.956748742     -115.898699
9.28                 0.956661761     -116.122629
9.281                0.956574753     -116.347101
9.282                 0.95648772     -116.572116
9.283                0.956400663     -116.797674
9.284                0.956313586     -117.023775
9.285                 0.95622649      -117.25042
9.286                0.956139379     -117.477608
9.287                0.956052255      -117.70534
9.288                0.955965119     -117.933617
9.289                0.955877976     -118.162438
9.29                 0.955790827     -118.391803
9.291                0.955703675     -118.621713
9.292                0.955616522     -118.852167
9.293                0.955529372     -119.083167
9.294                0.955442226     -119.314712
9.295                0.955355088     -119.546801
9.296                0.955267961     -119.779436
9.297                0.955180846     -120.012616
9.298                0.955093748     -120.246341
9.299                0.955006668     -120.480612
9.3                  0.954919609     -120.715428
9.301                0.954832575     -120.950788
9.302                0.954745568     -121.186694
9.303                0.954658591     -121.423146
9.304                0.954571648     -121.660142
9.305                 0.95448474     -121.897683
9.306                0.954397872     -122.135769
9.307                0.954311045     -122.374399
9.308                0.954224264     -122.613574
9.309                0.954137531     -122.853294
9.31                 0.954050849     -123.093557
9.311                0.953964221     -123.334365
9.312                0.953877651     -123.575716
9.313                0.953791142     -123.817611
9.314                0.953704696     -124.060048
9.315                0.953618318     -124.303029
9.316                 0.95353201     -124.546552
9.317                0.953445776     -124.790618
9.318                0.953359618     -125.035225
9.319                0.953273541     -125.280374
9.32                 0.953187548     -125.526064
9.321                0.953101642     -125.772294
9.322                0.953015826     -126.019065
9.323                0.952930103     -126.266376
9.324                0.952844479     -126.514226
9.325                0.952758954     -126.762614
9.326                0.952673535     -127.011541
9.327                0.952588222     -127.261005
9.328                0.952503022     -127.511007
9.329                0.952417936     -127.761545
9.33                 0.952332969     -128.012619
9.331                0.952248123     -128.264228
9.332                0.952163404     -128.516372
9.333                0.952078814      -128.76905
9.334                0.951994357     -129.022261
9.335                0.951910037     -129.276004
9.336                0.951825858     -129.530279
9.337                0.951741823     -129.785085
9.338                0.951657936      -130.04042
9.339                0.951574201     -130.296286
9.34                 0.951490622     -130.552679
9.341                0.951407202       -130.8096
9.342                0.951323946     -131.067048
9.343                0.951240857     -131.325021
9.344                 0.95115794     -131.583519
9.345                0.951075197      -131.84254
9.346                0.950992634     -132.102085
9.347                0.950910254     -132.362151
9.348                0.950828061     -132.622738
9.349                 0.95074606     -132.883844
9.35                 0.950664253     -133.145468
9.351                0.950582646      -133.40761
9.352                0.950501242     -133.670268
9.353                0.950420045     -133.933441
9.354                 0.95033906     -134.197128
9.355                 0.95025829     -134.461327
9.356                0.950177741     -134.726038
9.357                0.950097415     -134.991258
9.358                0.950017317     -135.256987
9.359                0.949937452     -135.523223
9.36                 0.949857823     -135.789966
9.361                0.949778434     -136.057212
9.362                0.949699291     -136.324962
9.363                0.949620397     -136.593213
9.364                0.949541756     -136.861965
9.365                0.949463374     -137.131215
9.366                0.949385253     -137.400962
9.367                0.949307398     -137.671205
9.368                0.949229814     -137.941941
9.369                0.949152506      -138.21317
9.37                 0.949075476      -138.48489
9.371                0.948998731     -138.757098
9.372                0.948922273     -139.029794
9.373                0.948846108     -139.302976
9.374                 0.94877024     -139.576641
9.375                0.948694673     -139.850788
9.376                0.948619411     -140.125416
9.377                 0.94854446     -140.400522
9.378                0.948469823     -140.676104
9.379                0.948395505     -140.952161
9.38                 0.948321511      -141.22869
9.381                0.948247844     -141.505691
9.382                 0.94817451      -141.78316
9.383                0.948101512     -142.061095
9.384                0.948028855     -142.339496
9.385                0.947956545     -142.618359
9.386                0.947884584     -142.897682
9.387                0.947812978     -143.177464
9.388                0.947741731     -143.457702
9.389                0.947670847     -143.738394
9.39                 0.947600332     -144.019538
9.391                0.947530189     -144.301131
9.392                0.947460423     -144.583172
9.393                0.947391039     -144.865658
9.394                0.947322041     -145.148586
9.395                0.947253433     -145.431955
9.396                 0.94718522     -145.715761
9.397                0.947117406     -146.000004
9.398                0.947049997     -146.284679
9.399                0.946982996     -146.569785
9.4                  0.946916407     -146.855318
9.401                0.946850236     -147.141278
9.402                0.946784487      -147.42766
9.403                0.946719164     -147.714463
9.404                0.946654271     -148.001684
9.405                0.946589814      -148.28932
9.406                0.946525796     -148.577368
9.407                0.946462223     -148.865826
9.408                0.946399097     -149.154691
9.409                0.946336425     -149.443961
9.41                 0.946274209     -149.733632
9.411                0.946212455     -150.023701
9.412                0.946151167     -150.314167
9.413                0.946090349     -150.605025
9.414                0.946030006     -150.896274
9.415                0.945970142      -151.18791
9.416                0.945910761      -151.47993
9.417                0.945851868     -151.772331
9.418                0.945793466      -152.06511
9.419                0.945735561     -152.358265
9.42                 0.945678155     -152.651792
9.421                0.945621255     -152.945687
9.422                0.945564863     -153.239949
9.423                0.945508984     -153.534574
9.424                0.945453623     -153.829558
9.425                0.945398783     -154.124898
9.426                0.945344468     -154.420592
9.427                0.945290683     -154.716636
9.428                0.945237431     -155.013026
9.429                0.945184717      -155.30976
9.43                 0.945132545     -155.606833
9.431                0.945080919     -155.904244
9.432                0.945029842     -156.201987
9.433                0.944979319     -156.500061
9.434                0.944929354     -156.798461
9.435                 0.94487995     -157.097184
9.436                0.944831112     -157.396226
9.437                0.944782843     -157.695585
9.438                0.944735147     -157.995256
9.439                0.944688028     -158.295236
9.44                  0.94464149     -158.595521
9.441                0.944595536     -158.896108
9.442                 0.94455017     -159.196994
9.443                0.944505396     -159.498173
9.444                0.944461217     -159.799644
9.445                0.944417637     -160.101401
9.446                0.944374659     -160.403442
9.447                0.944332288     -160.705763
9.448                0.944290526      -161.00836
9.449                0.944249377     -161.311228
9.45                 0.944208845     -161.614365
9.451                0.944168932     -161.917766
9.452                0.944129642     -162.221428
9.453                0.944090979     -162.525347
9.454                0.944052945     -162.829519
9.455                0.944015544     -163.133939
9.456                0.943978779     -163.438605
9.457                0.943942653     -163.743511
9.458                0.943907169     -164.048655
9.459                0.943872331     -164.354031
9.46                 0.943838141     -164.659637
9.461                0.943804602     -164.965468
9.462                0.943771717      -165.27152
9.463                0.943739489     -165.577788
9.464                0.943707921      -165.88427
9.465                0.943677015      -166.19096
9.466                0.943646775     -166.497855
9.467                0.943617202      -166.80495
9.468                0.943588301     -167.112242
9.469                0.943560072     -167.419725
9.47                 0.943532519     -167.727397
9.471                0.943505644     -168.035252
9.472                 0.94347945     -168.343287
9.473                0.943453938     -168.651498
9.474                0.943429112     -168.959879
9.475                0.943404974     -169.268427
9.476                0.943381525     -169.577137
9.477                0.943358768     -169.886006
9.478                0.943336705     -170.195028
9.479                0.943315338     -170.504201
9.48                  0.94329467     -170.813518
9.481                0.943274701     -171.122976
9.482                0.943255434     -171.432571
9.483                0.943236871     -171.742298
9.484                0.943219014     -172.052153
9.485                0.943201864     -172.362131
9.486                0.943185422     -172.672228
9.487                0.943169692      -172.98244
9.488                0.943154673     -173.292762
9.489                0.943140368     -173.603189
9.49                 0.943126779     -173.913718
9.491                0.943113905     -174.224344
9.492                0.943101749     -174.535062
9.493                0.943090313     -174.845868
9.494                0.943079596     -175.156758
9.495                0.943069601     -175.467726
9.496                0.943060329     -175.778769
9.497                0.943051779     -176.089882
9.498                0.943043955     -176.401061
9.499                0.943036855       -176.7123
9.5                  0.943030482     -177.023596
9.501                0.943024836     -177.334944
9.502                0.943019918      -177.64634
9.503                0.943015728     -177.957778
9.504                0.943012266     -178.269254
9.505                0.943009535     -178.580765
9.506                0.943007533     -178.892305
9.507                0.943006262     -179.203869
9.508                0.943005721     -179.515454
9.509                0.943005912     -179.827055
9.51                 0.943006834      179.861334
9.511                0.943008487      179.549715
9.512                0.943010872      179.238095
9.513                0.943013989      178.926477
9.514                0.943017837      178.614866
9.515                0.943022417      178.303267
9.516                0.943027728      177.991683
9.517                 0.94303377      177.680121
9.518                0.943040543      177.368583
9.519                0.943048047      177.057075
9.52                 0.943056281      176.745602
9.521                0.943065245      176.434167
9.522                0.943074938      176.122775
9.523                 0.94308536      175.811432
9.524                0.943096509       175.50014
9.525                0.943108387      175.188906
9.526                 0.94312099      174.877733
9.527                 0.94313432      174.566625
9.528                0.943148375      174.255588
9.529                0.943163153      173.944626
9.53                 0.943178655      173.633743
9.531                0.943194878      173.322944
9.532                0.943211823      173.012234
9.533                0.943229487      172.701616
9.534                0.943247869      172.391095
9.535                0.943266969      172.080676
9.536                0.943286785      171.770362
9.537                0.943307314       171.46016
9.538                0.943328557      171.150072
9.539                0.943350511      170.840104
9.54                 0.943373175      170.530259
9.541                0.943396548      170.220542
9.542                0.943420626      169.910958
9.543                 0.94344541      169.601511
9.544                0.943470896      169.292205
9.545                0.943497083      168.983044
9.546                 0.94352397      168.674034
9.547                0.943551553      168.365177
9.548                0.943579832      168.056479
9.549                0.943608804      167.747944
9.55                 0.943638467      167.439576
9.551                0.943668818      167.131379
9.552                0.943699856      166.823357
9.553                0.943731578      166.515515
9.554                0.943763982      166.207858
9.555                0.943797065      165.900388
9.556                0.943830825      165.593111
9.557                 0.94386526       165.28603
9.558                0.943900367       164.97915
9.559                0.943936143      164.672475
9.56                 0.943972585      164.366008
9.561                0.944009692      164.059755
9.562                 0.94404746      163.753719
9.563                0.944085886      163.447904
9.564                0.944124968      163.142314
9.565                0.944164703      162.836953
9.566                0.944205087      162.531825
9.567                0.944246118      162.226935
9.568                0.944287793      161.922286
9.569                0.944330109      161.617882
9.57                 0.944373062      161.313727
9.571                 0.94441665      161.009825
9.572                0.944460869      160.706179
9.573                0.944505716      160.402795
9.574                0.944551187      160.099674
9.575                 0.94459728      159.796823
9.576                0.944643992      159.494243
9.577                0.944691317      159.191939
9.578                0.944739254      158.889915
9.579                0.944787799      158.588175
9.58                 0.944836948      158.286721
9.581                0.944886698      157.985558
9.582                0.944937045       157.68469
9.583                0.944987986       157.38412
9.584                0.945039516      157.083851
9.585                0.945091633      156.783888
9.586                0.945144332      156.484233
9.587                0.945197609      156.184892
9.588                0.945251462      155.885865
9.589                0.945305886      155.587159
9.59                 0.945360877      155.288775
9.591                0.945416431      154.990718
9.592                0.945472545       154.69299
9.593                0.945529214      154.395596
9.594                0.945586436      154.098538
9.595                0.945644204       153.80182
9.596                0.945702517      153.505445
9.597                0.945761369      153.209416
9.598                0.945820756      152.913737
9.599                0.945880675      152.618412
9.6                  0.945941121      152.323442
9.601                0.946002091      152.028832