! TOUCHSTONE file generated by CST DESIGN STUDIO
! Date and time: Tue Feb  4 17:25:20 2025
! Project name: C:\Work\MatlabApps\UnitCellOptimizationMatlab\CST\unitcell.cst
! Tree item: Tasks\Sweep1\SPara1\S-Parameters
! Header version: 2024
! Port assignment regex: !\s*Touchstone port\s*([0-9]+)\s*=\s*(CST MWS port|CST DES external port|CST DES block port)\s*(.+)\s* \(\"(.*)\"\)(\s*mode\s*([0-9]+))?.*
! Touchstone port assignment:
! Touchstone port 1 = CST DES external port 1 ("")
# GHz S MA R 50
9                    0.965585274     -48.4952031
9.001                0.965525562     -48.5559134
9.002                0.965465673     -48.6167484
9.003                0.965405606     -48.6777086
9.004                0.965345361     -48.7387943
9.005                0.965284936     -48.8000059
9.006                0.965224332     -48.8613439
9.007                0.965163547     -48.9228085
9.008                0.965102582     -48.9844001
9.009                0.965041435     -49.0461192
9.01                 0.964980105     -49.1079662
9.011                0.964918593     -49.1699413
9.012                0.964856898     -49.2320451
9.013                0.964795018     -49.2942778
9.014                0.964732954       -49.35664
9.015                0.964670704     -49.4191319
9.016                0.964608268      -49.481754
9.017                0.964545646     -49.5445067
9.018                0.964482837     -49.6073903
9.019                 0.96441984     -49.6704054
9.02                 0.964356654     -49.7335521
9.021                0.964293279     -49.7968311
9.022                0.964229715     -49.8602426
9.023                 0.96416596     -49.9237871
9.024                0.964102014      -49.987465
9.025                0.964037876     -50.0512767
9.026                0.963973546     -50.1152226
9.027                0.963909022     -50.1793031
9.028                0.963844305     -50.2435186
9.029                0.963779394     -50.3078696
9.03                 0.963714288     -50.3723564
9.031                0.963648986     -50.4369795
9.032                0.963583488     -50.5017393
9.033                0.963517793     -50.5666362
9.034                  0.9634519     -50.6316706
9.035                0.963385808      -50.696843
9.036                0.963319518     -50.7621537
9.037                0.963253028     -50.8276033
9.038                0.963186338     -50.8931921
9.039                0.963119446     -50.9589205
9.04                 0.963052353      -51.024789
9.041                0.962985057     -51.0907981
9.042                0.962917558     -51.1569481
9.043                0.962849855     -51.2232395
9.044                0.962781948     -51.2896727
9.045                0.962713836     -51.3562482
9.046                0.962645517     -51.4229664
9.047                0.962576992     -51.4898278
9.048                 0.96250826     -51.5568327
9.049                0.962439319     -51.6239817
9.05                  0.96237017     -51.6912751
9.051                0.962300811     -51.7587135
9.052                0.962231242     -51.8262973
9.053                0.962161462     -51.8940269
9.054                0.962091471     -51.9619028
9.055                0.962021267     -52.0299254
9.056                 0.96195085     -52.0980953
9.057                0.961880219     -52.1664127
9.058                0.961809374     -52.2348783
9.059                0.961738314     -52.3034925
9.06                 0.961667037     -52.3722557
9.061                0.961595544     -52.4411685
9.062                0.961523833     -52.5102312
9.063                0.961451904     -52.5794443
9.064                0.961379756     -52.6488083
9.065                0.961307388     -52.7183238
9.066                  0.9612348      -52.787991
9.067                0.961161991     -52.8578106
9.068                0.961088959     -52.9277831
9.069                0.961015705     -52.9979088
9.07                 0.960942227     -53.0681882
9.071                0.960868526      -53.138622
9.072                0.960794599     -53.2092104
9.073                0.960720446     -53.2799541
9.074                0.960646067     -53.3508535
9.075                 0.96057146      -53.421909
9.076                0.960496625     -53.4931213
9.077                0.960421561     -53.5644907
9.078                0.960346268     -53.6360178
9.079                0.960270744     -53.7077031
9.08                 0.960194989     -53.7795471
9.081                0.960119002     -53.8515502
9.082                0.960042782      -53.923713
9.083                0.959966329      -53.996036
9.084                0.959889641     -54.0685196
9.085                0.959812717     -54.1411645
9.086                0.959735558      -54.213971
9.087                0.959658162     -54.2869398
9.088                0.959580528     -54.3600713
9.089                0.959502656      -54.433366
9.09                 0.959424545     -54.5068244
9.091                0.959346193     -54.5804472
9.092                0.959267601     -54.6542347
9.093                0.959188767     -54.7281876
9.094                 0.95910969     -54.8023063
9.095                 0.95903037     -54.8765914
9.096                0.958950806     -54.9510433
9.097                0.958870997     -55.0256627
9.098                0.958790942     -55.1004501
9.099                 0.95871064      -55.175406
9.1                  0.958630091     -55.2505309
9.101                0.958549293     -55.3258253
9.102                0.958468246     -55.4012899
9.103                 0.95838695     -55.4769251
9.104                0.958305402     -55.5527315
9.105                0.958223602     -55.6287097
9.106                 0.95814155     -55.7048602
9.107                0.958059245     -55.7811835
9.108                0.957976685     -55.8576802
9.109                 0.95789387     -55.9343508
9.11                 0.957810798      -56.011196
9.111                 0.95772747     -56.0882162
9.112                0.957643884      -56.165412
9.113                 0.95756004      -56.242784
9.114                0.957475936     -56.3203328
9.115                0.957391571     -56.3980589
9.116                0.957306946     -56.4759629
9.117                0.957222058     -56.5540453
9.118                0.957136907     -56.6323068
9.119                0.957051492     -56.7107479
9.12                 0.956965812     -56.7893691
9.121                0.956879866     -56.8681711
9.122                0.956793654     -56.9471545
9.123                0.956707175     -57.0263198
9.124                0.956620427     -57.1056676
9.125                0.956533409     -57.1851985
9.126                0.956446121     -57.2649131
9.127                0.956358563     -57.3448119
9.128                0.956270732     -57.4248957
9.129                0.956182628     -57.5051649
9.13                  0.95609425     -57.5856202
9.131                0.956005598     -57.6662622
9.132                0.955916669     -57.7470914
9.133                0.955827464     -57.8281085
9.134                0.955737982     -57.9093142
9.135                0.955648221     -57.9907089
9.136                 0.95555818     -58.0722933
9.137                 0.95546786      -58.154068
9.138                0.955377257     -58.2360337
9.139                0.955286373     -58.3181909
9.14                 0.955195205     -58.4005404
9.141                0.955103754     -58.4830826
9.142                0.955012017     -58.5658182
9.143                0.954919994     -58.6487479
9.144                0.954827684     -58.7318723
9.145                0.954735086      -58.815192
9.146                  0.9546422     -58.8987077
9.147                0.954549023       -58.98242
9.148                0.954455556     -59.0663294
9.149                0.954361797     -59.1504368
9.15                 0.954267745     -59.2347426
9.151                0.954173399     -59.3192477
9.152                0.954078759     -59.4039525
9.153                0.953983823     -59.4888578
9.154                 0.95388859     -59.5739642
9.155                 0.95379306     -59.6592723
9.156                0.953697231     -59.7447829
9.157                0.953601103     -59.8304966
9.158                0.953504674      -59.916414
9.159                0.953407943     -60.0025359
9.16                  0.95331091     -60.0888628
9.161                0.953213573     -60.1753955
9.162                0.953115932     -60.2621346
9.163                0.953017985     -60.3490808
9.164                0.952919732     -60.4362348
9.165                0.952821171     -60.5235972
9.166                0.952722302     -60.6111687
9.167                0.952623123     -60.6989501
9.168                0.952523633      -60.786942
9.169                0.952423832     -60.8751451
9.17                 0.952323718     -60.9635601
9.171                0.952223291     -61.0521877
9.172                0.952122549     -61.1410285
9.173                0.952021491     -61.2300833
9.174                0.951920117     -61.3193529
9.175                0.951818425     -61.4088378
9.176                0.951716415     -61.4985388
9.177                0.951614084     -61.5884566
9.178                0.951511433     -61.6785919
9.179                 0.95140846     -61.7689454
9.18                 0.951305164     -61.8595179
9.181                0.951201544     -61.9503101
9.182                0.951097599     -62.0413226
9.183                0.950993329     -62.1325563
9.184                0.950888731     -62.2240118
9.185                0.950783805     -62.3156899
9.186                0.950678551     -62.4075913
9.187                0.950572966     -62.4997167
9.188                0.950467049     -62.5920669
9.189                0.950360801     -62.6846427
9.19                 0.950254219     -62.7774446
9.191                0.950147303     -62.8704736
9.192                0.950040051     -62.9637304
9.193                0.949932463     -63.0572156
9.194                0.949824538     -63.1509302
9.195                0.949716273     -63.2448747
9.196                 0.94960767       -63.33905
9.197                0.949498725     -63.4334569
9.198                0.949389438      -63.528096
9.199                0.949279809     -63.6229682
9.2                  0.949169836     -63.7180743
9.201                0.949059517     -63.8134149
9.202                0.948948853      -63.908991
9.203                0.948837841     -64.0048032
9.204                0.948726481     -64.1008524
9.205                0.948614772     -64.1971392
9.206                0.948502712     -64.2936646
9.207                0.948390301     -64.3904293
9.208                0.948277537     -64.4874341
9.209                 0.94816442     -64.5846798
9.21                 0.948050947     -64.6821672
9.211                0.947937119      -64.779897
9.212                0.947822934     -64.8778702
9.213                0.947708391     -64.9760874
9.214                0.947593489     -65.0745495
9.215                0.947478226     -65.1732573
9.216                0.947362602     -65.2722117
9.217                0.947246616     -65.3714134
9.218                0.947130267     -65.4708633
9.219                0.947013552     -65.5705621
9.22                 0.946896472     -65.6705108
9.221                0.946779025       -65.77071
9.222                0.946661211     -65.8711608
9.223                0.946543027     -65.9718638
9.224                0.946424473       -66.07282
9.225                0.946305548     -66.1740302
9.226                0.946186251     -66.2754951
9.227                 0.94606658     -66.3772158
9.228                0.945946535     -66.4791929
9.229                0.945826114     -66.5814274
9.23                 0.945705316     -66.6839201
9.231                0.945584141     -66.7866719
9.232                0.945462586     -66.8896836
9.233                0.945340652     -66.9929561
9.234                0.945218336     -67.0964902
9.235                0.945095638     -67.2002869
9.236                0.944972557     -67.3043469
9.237                0.944849091     -67.4086712
9.238                 0.94472524     -67.5132607
9.239                0.944601002     -67.6181162
9.24                 0.944476376     -67.7232386
9.241                0.944351361     -67.8286287
9.242                0.944225956     -67.9342876
9.243                 0.94410016      -68.040216
9.244                0.943973972     -68.1464149
9.245                 0.94384739     -68.2528851
9.246                0.943720414     -68.3596276
9.247                0.943593043     -68.4666432
9.248                0.943465275      -68.573933
9.249                0.943337109     -68.6814976
9.25                 0.943208544     -68.7893382
9.251                0.943079579     -68.8974556
9.252                0.942950213     -69.0058507
9.253                0.942820445     -69.1145244
9.254                0.942690273     -69.2234777
9.255                0.942559697     -69.3327115
9.256                0.942428716     -69.4422267
9.257                0.942297328     -69.5520243
9.258                0.942165532     -69.6621051
9.259                0.942033328     -69.7724702
9.26                 0.941900713     -69.8831204
9.261                0.941767688     -69.9940568
9.262                 0.94163425     -70.1052802
9.263                  0.9415004     -70.2167916
9.264                0.941366135      -70.328592
9.265                0.941231454     -70.4406823
9.266                0.941096357     -70.5530634
9.267                0.940960843     -70.6657364
9.268                 0.94082491     -70.7787022
9.269                0.940688557     -70.8919618
9.27                 0.940551784     -71.0055161
9.271                0.940414588     -71.1193662
9.272                 0.94027697     -71.2335129
9.273                0.940138928     -71.3479573
9.274                 0.94000046     -71.4627004
9.275                0.939861567     -71.5777431
9.276                0.939722246     -71.6930865
9.277                0.939582497     -71.8087314
9.278                0.939442318      -71.924679
9.279                0.939301709     -72.0409302
9.28                 0.939160669     -72.1574861
9.281                0.939019196     -72.2743475
9.282                0.938877289     -72.3915156
9.283                0.938734948     -72.5089914
9.284                0.938592171     -72.6267758
9.285                0.938448958     -72.7448698
9.286                0.938305307     -72.8632746
9.287                0.938161216      -72.981991
9.288                0.938016686     -73.1010202
9.289                0.937871716     -73.2203632
9.29                 0.937726303      -73.340021
9.291                0.937580447     -73.4599945
9.292                0.937434148      -73.580285
9.293                0.937287404     -73.7008934
9.294                0.937140213     -73.8218207
9.295                0.936992576      -73.943068
9.296                0.936844491     -74.0646364
9.297                0.936695957     -74.1865268
9.298                0.936546973     -74.3087404
9.299                0.936397538     -74.4312782
9.3                  0.936247651     -74.5541413
9.301                0.936097312     -74.6773308
9.302                0.935946518     -74.8008476
9.303                 0.93579527     -74.9246929
9.304                0.935643566     -75.0488677
9.305                0.935491406     -75.1733731
9.306                0.935338787     -75.2982103
9.307                 0.93518571     -75.4233802
9.308                0.935032174      -75.548884
9.309                0.934878177     -75.6747227
9.31                 0.934723719     -75.8008975
9.311                0.934568799     -75.9274094
9.312                0.934413415     -76.0542595
9.313                0.934257568     -76.1814489
9.314                0.934101255     -76.3089788
9.315                0.933944477     -76.4368501
9.316                0.933787231     -76.5650642
9.317                0.933629518     -76.6936219
9.318                0.933471337     -76.8225245
9.319                0.933312686     -76.9517731
9.32                 0.933153565     -77.0813688
9.321                0.932993973     -77.2113127
9.322                 0.93283391     -77.3416059
9.323                0.932673373     -77.4722496
9.324                0.932512363     -77.6032449
9.325                0.932350878     -77.7345928
9.326                0.932188919     -77.8662947
9.327                0.932026483     -77.9983515
9.328                0.931863571     -78.1307644
9.329                0.931700181     -78.2635347
9.33                 0.931536313     -78.3966633
9.331                0.931371967     -78.5301515
9.332                 0.93120714     -78.6640005
9.333                0.931041832     -78.7982113
9.334                0.930876044     -78.9327851
9.335                0.930709774     -79.0677231
9.336                0.930543021     -79.2030264
9.337                0.930375784     -79.3386963
9.338                0.930208064     -79.4747338
9.339                0.930039859     -79.6111401
9.34                 0.929871168     -79.7479165
9.341                0.929701991     -79.8850641
9.342                0.929532328      -80.022584
9.343                0.929362178     -80.1604774
9.344                 0.92919154     -80.2987456
9.345                0.929020413     -80.4373897
9.346                0.928848797     -80.5764108
9.347                0.928676691     -80.7158103
9.348                0.928504095     -80.8555892
9.349                0.928331009     -80.9957487
9.35                 0.928157431     -81.1362901
9.351                0.927983361     -81.2772146
9.352                0.927808798     -81.4185233
9.353                0.927633743     -81.5602174
9.354                0.927458195     -81.7022982
9.355                0.927282153     -81.8447669
9.356                0.927105616     -81.9876246
9.357                0.926928585     -82.1308726
9.358                0.926751058     -82.2745121
9.359                0.926573036     -82.4185443
9.36                 0.926394518     -82.5629704
9.361                0.926215504     -82.7077917
9.362                0.926035993     -82.8530093
9.363                0.925855985     -82.9986245
9.364                 0.92567548     -83.1446385
9.365                0.925494476     -83.2910525
9.366                0.925312975     -83.4378678
9.367                0.925130976     -83.5850855
9.368                0.924948478      -83.732707
9.369                0.924765481     -83.8807335
9.37                 0.924581985     -84.0291661
9.371                 0.92439799     -84.1780062
9.372                0.924213496     -84.3272549
9.373                0.924028502     -84.4769135
9.374                0.923843008     -84.6269833
9.375                0.923657014     -84.7774655
9.376                 0.92347052     -84.9283613
9.377                0.923283526      -85.079672
9.378                0.923096032     -85.2313988
9.379                0.922908038      -85.383543
9.38                 0.922719544     -85.5361058
9.381                0.922530549     -85.6890885
9.382                0.922341054     -85.8424924
9.383                0.922151058     -85.9963186
9.384                0.921960563     -86.1505685
9.385                0.921769567     -86.3052433
9.386                0.921578071     -86.4603442
9.387                0.921386075     -86.6158726
9.388                 0.92119358     -86.7718297
9.389                0.921000585     -86.9282166
9.39                  0.92080709     -87.0850348
9.391                0.920613096     -87.2422855
9.392                0.920418604     -87.3999699
9.393                0.920223612     -87.5580893
9.394                0.920028122      -87.716645
9.395                0.919832134     -87.8756382
9.396                0.919635648     -88.0350702
9.397                0.919438664     -88.1949423
9.398                0.919241184     -88.3552557
9.399                0.919043207     -88.5160117
9.4                  0.918844733     -88.6772115
9.401                0.918645764     -88.8388566
9.402                0.918446299      -89.000948
9.403                 0.91824634     -89.1634871
9.404                0.918045886     -89.3264752
9.405                0.917844939     -89.4899135
9.406                0.917643499     -89.6538033
9.407                0.917441566     -89.8181459
9.408                0.917239142     -89.9829425
9.409                0.917036227     -90.1481944
9.41                 0.916832821     -90.3139029
9.411                0.916628926     -90.4800692
9.412                0.916424542     -90.6466947
9.413                0.916219669     -90.8137806
9.414                 0.91601431     -90.9813281
9.415                0.915808465     -91.1493386
9.416                0.915602134     -91.3178133
9.417                0.915395318     -91.4867534
9.418                 0.91518802     -91.6561603
9.419                0.914980238     -91.8260352
9.42                 0.914771976     -91.9963794
9.421                0.914563233     -92.1671941
9.422                0.914354011     -92.3384806
9.423                0.914144311     -92.5102402
9.424                0.913934134     -92.6824741
9.425                0.913723481     -92.8551836
9.426                0.913512354       -93.02837
9.427                0.913300753     -93.2020344
9.428                0.913088681     -93.3761783
9.429                0.912876139     -93.5508028
9.43                 0.912663127     -93.7259091
9.431                0.912449648     -93.9014986
9.432                0.912235702     -94.0775725
9.433                0.912021292      -94.254132
9.434                0.911806419     -94.4311784
9.435                0.911591084     -94.6087129
9.436                 0.91137529     -94.7867368
9.437                0.911159037     -94.9652513
9.438                0.910942328     -95.1442577
9.439                0.910725164     -95.3237571
9.44                 0.910507547     -95.5037509
9.441                0.910289479     -95.6842402
9.442                0.910070962     -95.8652264
9.443                0.909851997     -96.0467105
9.444                0.909632587     -96.2286939
9.445                0.909412734     -96.4111778
9.446                 0.90919244     -96.5941633
9.447                0.908971706     -96.7776518
9.448                0.908750535     -96.9616443
9.449                0.908528929     -97.1461422
9.45                 0.908306891     -97.3311466
9.451                0.908084423     -97.5166587
9.452                0.907861526     -97.7026798
9.453                0.907638204      -97.889211
9.454                0.907414458     -98.0762535
9.455                0.907190292     -98.2638085
9.456                0.906965707     -98.4518771
9.457                0.906740707     -98.6404607
9.458                0.906515293     -98.8295603
9.459                0.906289469     -99.0191771
9.46                 0.906063237     -99.2093123
9.461                0.905836601      -99.399967
9.462                0.905609562     -99.5911424
9.463                0.905382124     -99.7828397
9.464                0.905154289     -99.9750599
9.465                0.904926061     -100.167804
9.466                0.904697443     -100.361074
9.467                0.904468437      -100.55487
9.468                0.904239047     -100.749194
9.469                0.904009276     -100.944046
9.47                 0.903779127     -101.139428
9.471                0.903548604     -101.335341
9.472                0.903317709     -101.531786
9.473                0.903086447     -101.728764
9.474                 0.90285482     -101.926276
9.475                0.902622833     -102.124324
9.476                0.902390488     -102.322908
9.477                0.902157789     -102.522029
9.478                0.901924741     -102.721689
9.479                0.901691346     -102.921888
9.48                 0.901457608     -103.122628
9.481                0.901223533     -103.323909
9.482                0.900989122     -103.525734
9.483                0.900754381     -103.728102
9.484                0.900519313     -103.931014
9.485                0.900283922     -104.134473
9.486                0.900048213     -104.338478
9.487                 0.89981219     -104.543031
9.488                0.899575856     -104.748132
9.489                0.899339217     -104.953784
9.49                 0.899102277     -105.159986
9.491                 0.89886504      -105.36674
9.492                0.898627511     -105.574046
9.493                0.898389694     -105.781906
9.494                0.898151594     -105.990321
9.495                0.897913216     -106.199291
9.496                0.897674564     -106.408817
9.497                0.897435643     -106.618901
9.498                0.897196459     -106.829542
9.499                0.896957016     -107.040743
9.5                  0.896717319     -107.252504
9.501                0.896477374     -107.464826
9.502                0.896237185     -107.677709
9.503                0.895996757     -107.891155
9.504                0.895756097     -108.105165
9.505                0.895515209     -108.319738
9.506                  0.8952741     -108.534877
9.507                0.895032773     -108.750581
9.508                0.894791236     -108.966852
9.509                0.894549493     -109.183691
9.51                  0.89430755     -109.401097
9.511                0.894065414     -109.619073
9.512                0.893823089     -109.837618
9.513                0.893580583     -110.056734
9.514                  0.8933379     -110.276421
9.515                0.893095047      -110.49668
9.516                0.892852031     -110.717512
9.517                0.892608857     -110.938916
9.518                0.892365531     -111.160895
9.519                 0.89212206     -111.383448
9.52                 0.891878451     -111.606577
9.521                 0.89163471     -111.830281
9.522                0.891390843     -112.054562
9.523                0.891146857      -112.27942
9.524                0.890902759     -112.504856
9.525                0.890658556      -112.73087
9.526                0.890414254     -112.957463
9.527                0.890169861     -113.184635
9.528                0.889925383     -113.412387
9.529                0.889680827     -113.640719
9.53                 0.889436202     -113.869633
9.531                0.889191513     -114.099128
9.532                0.888946768     -114.329205
9.533                0.888701975     -114.559864
9.534                0.888457141     -114.791106
9.535                0.888212274     -115.022931
9.536                0.887967381     -115.255339
9.537                0.887722469     -115.488332
9.538                0.887477548     -115.721909
9.539                0.887232624     -115.956071
9.54                 0.886987705     -116.190818
9.541                  0.8867428      -116.42615
9.542                0.886497916     -116.662068
9.543                0.886253061     -116.898572
9.544                0.886008244     -117.135662
9.545                0.885763474     -117.373338
9.546                0.885518758     -117.611602
9.547                0.885274104     -117.850452
9.548                0.885029522     -118.089889
9.549                 0.88478502     -118.329913
9.55                 0.884540607     -118.570525
9.551                 0.88429629     -118.811725
9.552                 0.88405208     -119.053512
9.553                0.883807985     -119.295886
9.554                0.883564014     -119.538849
9.555                0.883320176     -119.782399
9.556                 0.88307648     -120.026538
9.557                0.882832936     -120.271264
9.558                0.882589552     -120.516578
9.559                0.882346338      -120.76248
9.56                 0.882103303      -121.00897
9.561                0.881860457     -121.256047
9.562                0.881617809     -121.503712
9.563                0.881375369     -121.751965
9.564                0.881133147     -122.000805
9.565                0.880891153     -122.250232
9.566                0.880649395     -122.500246
9.567                0.880407885     -122.750847
9.568                0.880166632     -123.002035
9.569                0.879925646     -123.253808
9.57                 0.879684937     -123.506168
9.571                0.879444516     -123.759113
9.572                0.879204393     -124.012644
9.573                0.878964578      -124.26676
9.574                0.878725082      -124.52146
9.575                0.878485915     -124.776745
9.576                0.878247087     -125.032613
9.577                0.878008609     -125.289065
9.578                0.877770492       -125.5461
9.579                0.877532747     -125.803717
9.58                 0.877295385     -126.061915
9.581                0.877058415     -126.320695
9.582                 0.87682185     -126.580056
9.583                  0.8765857     -126.839997
9.584                0.876349977     -127.100517
9.585                0.876114691     -127.361616
9.586                0.875879853     -127.623293
9.587                0.875645476     -127.885547
9.588                 0.87541157     -128.148378
9.589                0.875178146     -128.411785
9.59                 0.874945217     -128.675767
9.591                0.874712793     -128.940323
9.592                0.874480886     -129.205452
9.593                0.874249508     -129.471154
9.594                 0.87401867     -129.737428
9.595                0.873788385     -130.004272
9.596                0.873558663     -130.271685
9.597                0.873329517     -130.539668
9.598                0.873100959     -130.808217
9.599                0.872873001     -131.077334
9.6                  0.872645654     -131.347016
9.601                 0.87241893     -131.617262