! TOUCHSTONE file generated by CST DESIGN STUDIO
! Date and time: Tue Feb  4 16:25:36 2025
! Project name: C:\Work\MatlabApps\UnitCellOptimizationMatlab\CST\unitcell.cst
! Tree item: Tasks\Sweep1\SPara1\S-Parameters
! Header version: 2024
! Port assignment regex: !\s*Touchstone port\s*([0-9]+)\s*=\s*(CST MWS port|CST DES external port|CST DES block port)\s*(.+)\s* \(\"(.*)\"\)(\s*mode\s*([0-9]+))?.*
! Touchstone port assignment:
! Touchstone port 1 = CST DES external port 1 ("")
# GHz S MA R 50
9                    0.957010328     -93.8792619
9.001                0.956970561     -94.0626403
9.002                0.956930096     -94.2465828
9.003                0.956888928     -94.4310908
9.004                0.956847051     -94.6161658
9.005                0.956804459     -94.8018092
9.006                0.956761147     -94.9880225
9.007                 0.95671711     -95.1748071
9.008                0.956672342     -95.3621644
9.009                0.956626839     -95.5500958
9.01                 0.956580594     -95.7386029
9.011                0.956533602     -95.9276869
9.012                0.956485858     -96.1173493
9.013                0.956437356     -96.3075916
9.014                0.956388091      -96.498415
9.015                0.956338058     -96.6898211
9.016                0.956287251     -96.8818111
9.017                0.956235666     -97.0743866
9.018                0.956183296     -97.2675488
9.019                0.956130136     -97.4612991
9.02                 0.956076181     -97.6556389
9.021                0.956021426     -97.8505696
9.022                0.955965865     -98.0460925
9.023                0.955909493     -98.2422089
9.024                0.955852305     -98.4389203
9.025                0.955794296     -98.6362279
9.026                 0.95573546      -98.834133
9.027                0.955675792      -99.032637
9.028                0.955615287     -99.2317413
9.029                 0.95555394      -99.431447
9.03                 0.955491745     -99.6317555
9.031                0.955428697     -99.8326681
9.032                0.955364792     -100.034186
9.033                0.955300024     -100.236311
9.034                0.955234388     -100.439043
9.035                0.955167878     -100.642385
9.036                0.955100491     -100.846337
9.037                 0.95503222     -101.050901
9.038                0.954963062     -101.256077
9.039                 0.95489301     -101.461868
9.04                  0.95482206     -101.668274
9.041                0.954750207     -101.875296
9.042                0.954677446     -102.082937
9.043                0.954603773     -102.291196
9.044                0.954529182     -102.500075
9.045                0.954453668     -102.709575
9.046                0.954377227     -102.919698
9.047                0.954299854     -103.130444
9.048                0.954221545     -103.341815
9.049                0.954142294     -103.553812
9.05                 0.954062098     -103.766435
9.051                0.953980951     -103.979687
9.052                0.953898848     -104.193567
9.053                0.953815787     -104.408078
9.054                0.953731761     -104.623219
9.055                0.953646766     -104.838993
9.056                0.953560798     -105.055401
9.057                0.953473854     -105.272442
9.058                0.953385927     -105.490119
9.059                0.953297015     -105.708432
9.06                 0.953207113     -105.927383
9.061                0.953116216     -106.146971
9.062                0.953024321     -106.367199
9.063                0.952931423     -106.588067
9.064                0.952837519     -106.809576
9.065                0.952742605     -107.031727
9.066                0.952646676     -107.254521
9.067                0.952549728     -107.477959
9.068                0.952451759     -107.702041
9.069                0.952352764     -107.926769
9.07                 0.952252739     -108.152143
9.071                0.952151682     -108.378165
9.072                0.952049587     -108.604834
9.073                0.951946452     -108.832152
9.074                0.951842274      -109.06012
9.075                0.951737048     -109.288738
9.076                0.951630772     -109.518007
9.077                0.951523443     -109.747928
9.078                0.951415056     -109.978501
9.079                 0.95130561     -110.209727
9.08                   0.9511951     -110.441608
9.081                0.951083525     -110.674143
9.082                 0.95097088     -110.907332
9.083                0.950857164     -111.141178
9.084                0.950742373      -111.37568
9.085                0.950626505     -111.610839
9.086                0.950509557     -111.846656
9.087                0.950391527     -112.083131
9.088                0.950272412     -112.320264
9.089                 0.95015221     -112.558056
9.09                 0.950030918     -112.796508
9.091                0.949908535      -113.03562
9.092                0.949785058     -113.275392
9.093                0.949660485     -113.515826
9.094                0.949534815      -113.75692
9.095                0.949408045     -113.998676
9.096                0.949280173     -114.241095
9.097                0.949151199     -114.484176
9.098                0.949021119     -114.727919
9.099                0.948889934     -114.972325
9.1                  0.948757641     -115.217395
9.101                 0.94862424     -115.463128
9.102                0.948489728     -115.709525
9.103                0.948354106     -115.956586
9.104                0.948217371     -116.204312
9.105                0.948079524     -116.452701
9.106                0.947940562     -116.701755
9.107                0.947800487     -116.951473
9.108                0.947659296     -117.201856
9.109                 0.94751699     -117.452904
9.11                 0.947373568     -117.704616
9.111                0.947229029     -117.956993
9.112                0.947083375     -118.210035
9.113                0.946936604     -118.463741
9.114                0.946788718     -118.718112
9.115                0.946639715     -118.973148
9.116                0.946489596     -119.228847
9.117                0.946338363     -119.485211
9.118                0.946186014      -119.74224
9.119                0.946032552     -119.999932
9.12                 0.945877976     -120.258287
9.121                0.945722288     -120.517306
9.122                0.945565489     -120.776988
9.123                 0.94540758     -121.037333
9.124                0.945248562      -121.29834
9.125                0.945088437      -121.56001
9.126                0.944927206     -121.822341
9.127                 0.94476487     -122.085333
9.128                0.944601432     -122.348986
9.129                0.944436894     -122.613299
9.13                 0.944271258     -122.878273
9.131                0.944104525     -123.143905
9.132                0.943936699     -123.410196
9.133                0.943767781     -123.677145
9.134                0.943597775     -123.944752
9.135                0.943426682     -124.213015
9.136                0.943254507     -124.481934
9.137                0.943081251     -124.751509
9.138                0.942906919     -125.021738
9.139                0.942731513     -125.292621
9.14                 0.942555038     -125.564157
9.141                0.942377495     -125.836345
9.142                0.942198891     -126.109184
9.143                0.942019227     -126.382674
9.144                0.941838508     -126.656813
9.145                0.941656739       -126.9316
9.146                0.941473924     -127.207034
9.147                0.941290067     -127.483115
9.148                0.941105174     -127.759841
9.149                0.940919247      -128.03721
9.15                 0.940732294     -128.315223
9.151                0.940544319     -128.593877
9.152                0.940355326     -128.873172
9.153                0.940165322     -129.153106
9.154                0.939974312     -129.433678
9.155                0.939782302     -129.714887
9.156                0.939589298      -129.99673
9.157                0.939395305     -130.279208
9.158                 0.93920033     -130.562317
9.159                0.939004379     -130.846058
9.16                  0.93880746     -131.130428
9.161                0.938609578     -131.415426
9.162                 0.93841074      -131.70105
9.163                0.938210953     -131.987298
9.164                0.938010225      -132.27417
9.165                0.937808563     -132.561663
9.166                0.937605974     -132.849775
9.167                0.937402465     -133.138505
9.168                0.937198046     -133.427851
9.169                0.936992723     -133.717811
9.17                 0.936786506     -134.008384
9.171                0.936579401     -134.299566
9.172                0.936371418     -134.591357
9.173                0.936162565     -134.883754
9.174                0.935952851     -135.176756
9.175                0.935742285      -135.47036
9.176                0.935530876     -135.764564
9.177                0.935318633     -136.059365
9.178                0.935105566     -136.354763
9.179                0.934891685     -136.650754
9.18                 0.934676998     -136.947337
9.181                0.934461517     -137.244508
9.182                0.934245251     -137.542266
9.183                 0.93402821     -137.840609
9.184                0.933810405     -138.139533
9.185                0.933591847     -138.439036
9.186                0.933372545     -138.739117
9.187                0.933152512     -139.039771
9.188                0.932931757     -139.340998
9.189                0.932710293     -139.642794
9.19                 0.932488131     -139.945156
9.191                0.932265281     -140.248081
9.192                0.932041757     -140.551568
9.193                0.931817569     -140.855613
9.194                 0.93159273     -141.160214
9.195                0.931367252     -141.465367
9.196                0.931141147      -141.77107
9.197                0.930914427      -142.07732
9.198                0.930687106     -142.384113
9.199                0.930459196     -142.691447
9.2                   0.93023071     -142.999319
9.201                0.930001662     -143.307725
9.202                0.929772063     -143.616663
9.203                0.929541928     -143.926129
9.204                 0.92931127      -144.23612
9.205                0.929080103     -144.546633
9.206                 0.92884844     -144.857665
9.207                0.928616296     -145.169211
9.208                0.928383685      -145.48127
9.209                0.928150621     -145.793837
9.21                 0.927917117     -146.106908
9.211                 0.92768319     -146.420482
9.212                0.927448853     -146.734553
9.213                0.927214121     -147.049118
9.214                0.926979009     -147.364175
9.215                0.926743532     -147.679718
9.216                0.926507706     -147.995745
9.217                0.926271545     -148.312251
9.218                0.926035065     -148.629234
9.219                0.925798282     -148.946688
9.22                  0.92556121     -149.264611
9.221                0.925323867     -149.582998
9.222                0.925086267     -149.901846
9.223                0.924848428      -150.22115
9.224                0.924610364     -150.540907
9.225                0.924372092     -150.861112
9.226                0.924133629     -151.181762
9.227                0.923894991     -151.502852
9.228                0.923656195     -151.824379
9.229                0.923417257     -152.146337
9.23                 0.923178193     -152.468723
9.231                0.922939022     -152.791533
9.232                0.922699759     -153.114762
9.233                0.922460422     -153.438406
9.234                0.922221028     -153.762461
9.235                0.921981594     -154.086922
9.236                0.921742138     -154.411784
9.237                0.921502677     -154.737044
9.238                0.921263227     -155.062697
9.239                0.921023808     -155.388738
9.24                 0.920784436     -155.715163
9.241                 0.92054513     -156.041967
9.242                0.920305906     -156.369146
9.243                0.920066783     -156.696695
9.244                0.919827779     -157.024608
9.245                0.919588911     -157.352882
9.246                0.919350198     -157.681512
9.247                0.919111658     -158.010493
9.248                0.918873308     -158.339819
9.249                0.918635168     -158.669487
9.25                 0.918397254     -158.999492
9.251                0.918159586     -159.329827
9.252                0.917922182      -159.66049
9.253                 0.91768506     -159.991473
9.254                0.917448238     -160.322774
9.255                0.917211734     -160.654385
9.256                0.916975569     -160.986303
9.257                0.916739758     -161.318523
9.258                0.916504322     -161.651038
9.259                0.916269279     -161.983845
9.26                 0.916034646     -162.316938
9.261                0.915800443     -162.650311
9.262                0.915566688      -162.98396
9.263                  0.9153334     -163.317878
9.264                0.915100597     -163.652062
9.265                0.914868298     -163.986506
9.266                0.914636521     -164.321204
9.267                0.914405285     -164.656151
9.268                0.914174607     -164.991341
9.269                0.913944508      -165.32677
9.27                 0.913715005     -165.662432
9.271                0.913486116     -165.998321
9.272                 0.91325786     -166.334432
9.273                0.913030256     -166.670759
9.274                0.912803321     -167.007298
9.275                0.912577075     -167.344041
9.276                0.912351535     -167.680985
9.277                0.912126719     -168.018123
9.278                0.911902646      -168.35545
9.279                0.911679335      -168.69296
9.28                 0.911456802     -169.030648
9.281                0.911235066     -169.368508
9.282                0.911014146     -169.706534
9.283                0.910794059     -170.044721
9.284                0.910574822     -170.383062
9.285                0.910356454     -170.721553
9.286                0.910138973     -171.060188
9.287                0.909922395     -171.398961
9.288                 0.90970674     -171.737866
9.289                0.909492023     -172.076897
9.29                 0.909278263     -172.416049
9.291                0.909065477     -172.755316
9.292                0.908853681     -173.094692
9.293                0.908642894     -173.434172
9.294                0.908433133     -173.773749
9.295                0.908224413     -174.113418
9.296                0.908016752     -174.453173
9.297                0.907810168     -174.793008
9.298                0.907604675     -175.132918
9.299                0.907400292     -175.472896
9.3                  0.907197034     -175.812937
9.301                0.906994917     -176.153034
9.302                0.906793958     -176.493183
9.303                0.906594173     -176.833377
9.304                0.906395578     -177.173611
9.305                0.906198188     -177.513878
9.306                 0.90600202     -177.854172
9.307                0.905807088     -178.194488
9.308                0.905613408     -178.534821
9.309                0.905420995     -178.875163
9.31                 0.905229865      -179.21551
9.311                0.905040032     -179.555854
9.312                0.904851511     -179.896192
9.313                0.904664317      179.763484
9.314                0.904478464      179.423179
9.315                0.904293967      179.082899
9.316                 0.90411084       178.74265
9.317                0.903929097      178.402438
9.318                0.903748751      178.062268
9.319                0.903569817      177.722147
9.32                 0.903392309       177.38208
9.321                0.903216238      177.042073
9.322                0.903041619      176.702132
9.323                0.902868465      176.362262
9.324                0.902696788       176.02247
9.325                0.902526602      175.682761
9.326                0.902357918      175.343141
9.327                0.902190749      175.003616
9.328                0.902025108      174.664191
9.329                0.901861006      174.324872
9.33                 0.901698454      173.985666
9.331                0.901537465      173.646577
9.332                0.901378051      173.307611
9.333                0.901220221      172.968775
9.334                0.901063987      172.630073
9.335                0.900909361      172.291512
9.336                0.900756352      171.953097
9.337                0.900604971      171.614834
9.338                0.900455229      171.276727
9.339                0.900307135      170.938784
9.34                 0.900160699      170.601009
9.341                0.900015931      170.263408
9.342                 0.89987284      169.925987
9.343                0.899731436      169.588751
9.344                0.899591728      169.251705
9.345                0.899453724      168.914856
9.346                0.899317433      168.578208
9.347                0.899182864      168.241767
9.348                0.899050024      167.905539
9.349                0.898918922      167.569528
9.35                 0.898789566       167.23374
9.351                0.898661963      166.898181
9.352                0.898536121      166.562856
9.353                0.898412046       166.22777
9.354                0.898289746      165.892928
9.355                0.898169228      165.558336
9.356                0.898050497      165.223999
9.357                0.897933561      164.889922
9.358                0.897818426       164.55611
9.359                0.897705097      164.222569
9.36                  0.89759358      163.889303
9.361                0.897483881      163.556318
9.362                0.897376005      163.223619
9.363                0.897269956       162.89121
9.364                0.897165741      162.559097
9.365                0.897063364      162.227285
9.366                0.896962828      161.895778
9.367                0.896864139      161.564583
9.368                  0.8967673      161.233702
9.369                0.896672315      160.903142
9.37                 0.896579187      160.572907
9.371                0.896487921      160.243002
9.372                 0.89639852      159.913432
9.373                0.896310985      159.584201
9.374                0.896225321      159.255314
9.375                 0.89614153      158.926776
9.376                0.896059613      158.598592
9.377                0.895979574      158.270765
9.378                0.895901414      157.943301
9.379                0.895825135      157.616204
9.38                 0.895750739      157.289479
9.381                0.895678226       156.96313
9.382                0.895607599      156.637161
9.383                0.895538858      156.311578
9.384                0.895472003      155.986383
9.385                0.895407036      155.661582
9.386                0.895343956      155.337179
9.387                0.895282765      155.013178
9.388                0.895223461      154.689583
9.389                0.895166046      154.366399
9.39                 0.895110517      154.043629
9.391                0.895056875      153.721278
9.392                 0.89500512      153.399349
9.393                0.894955249      153.077847
9.394                0.894907262      152.756776
9.395                0.894861157       152.43614
9.396                0.894816934      152.115942
9.397                 0.89477459      151.796187
9.398                0.894734123      151.476878
9.399                0.894695532      151.158019
9.4                  0.894658814      150.839614
9.401                0.894623967      150.521666
9.402                0.894590988       150.20418
9.403                0.894559874      149.887158
9.404                0.894530623      149.570605
9.405                0.894503231      149.254524
9.406                0.894477696      148.938918
9.407                0.894454013      148.623791
9.408                 0.89443218      148.309147
9.409                0.894412192      147.994988
9.41                 0.894394045      147.681319
9.411                0.894377736      147.368142
9.412                0.894363261       147.05546
9.413                0.894350614      146.743278
9.414                0.894339792      146.431598
9.415                0.894330789      146.120423
9.416                0.894323602      145.809757
9.417                0.894318224      145.499602
9.418                0.894314652      145.189961
9.419                0.894312879      144.880839
9.42                   0.8943129      144.572236
9.421                 0.89431471      144.264157
9.422                0.894318303      143.956604
9.423                0.894323673      143.649581
9.424                0.894330815      143.343089
9.425                0.894339722      143.037132
9.426                0.894350388      142.731712
9.427                0.894362806      142.426832
9.428                0.894376971      142.122495
9.429                0.894392876      141.818703
9.43                 0.894410514      141.515459
9.431                0.894429878      141.212765
9.432                0.894450962      140.910624
9.433                0.894473758      140.609038
9.434                0.894498259      140.308009
9.435                0.894524458      140.007541
9.436                0.894552347      139.707634
9.437                 0.89458192      139.408293
9.438                0.894613168      139.109518
9.439                0.894646085      138.811312
9.44                 0.894680661      138.513676
9.441                0.894716889      138.216615
9.442                0.894754762      137.920128
9.443                0.894794271      137.624219
9.444                0.894835408      137.328889
9.445                0.894878164       137.03414
9.446                0.894922532      136.739974
9.447                0.894968504      136.446394
9.448                0.895016069        136.1534
9.449                0.895065221      135.860995
9.45                  0.89511595      135.569181
9.451                0.895168248      135.277958
9.452                0.895222105       134.98733
9.453                0.895277513      134.697297
9.454                0.895334463      134.407861
9.455                0.895392946      134.119024
9.456                0.895452953      133.830788
9.457                0.895514474      133.543153
9.458                0.895577501      133.256121
9.459                0.895642024      132.969694
9.46                 0.895708033      132.683873
9.461                 0.89577552      132.398659
9.462                0.895844475      132.114055
9.463                0.895914888       131.83006
9.464                0.895986749      131.546677
9.465                 0.89606005      131.263906
9.466                0.896134781      130.981749
9.467                0.896210931      130.700207
9.468                 0.89628849       130.41928
9.469                 0.89636745      130.138971
9.47                 0.896447801       129.85928
9.471                0.896529532      129.580208
9.472                0.896612633      129.301756
9.473                0.896697094      129.023926
9.474                0.896782906      128.746717
9.475                0.896870059      128.470131
9.476                0.896958542      128.194168
9.477                0.897048345      127.918831
9.478                0.897139458      127.644118
9.479                0.897231871      127.370032
9.48                 0.897325574      127.096572
9.481                0.897420556       126.82374
9.482                0.897516808      126.551535
9.483                0.897614319       126.27996
9.484                0.897713079      126.009014
9.485                0.897813077      125.738698
9.486                0.897914303      125.469012
9.487                0.898016747      125.199957
9.488                0.898120399      124.931533
9.489                0.898225248      124.663742
9.49                 0.898331284      124.396582
9.491                0.898438496      124.130055
9.492                0.898546874      123.864162
9.493                0.898656408      123.598901
9.494                0.898767088      123.334274
9.495                0.898878902      123.070281
9.496                0.898991841      122.806923
9.497                0.899105894      122.544198
9.498                0.899221051      122.282108
9.499                0.899337301      122.020653
9.5                  0.899454634      121.759833
9.501                 0.89957304      121.499648
9.502                0.899692508      121.240097
9.503                0.899813027      120.981182
9.504                0.899934589      120.722902
9.505                0.900057181      120.465257
9.506                0.900180794      120.208247
9.507                0.900305418      119.951873
9.508                0.900431042      119.696133
9.509                0.900557655      119.441028
9.51                 0.900685248      119.186559
9.511                 0.90081381      118.932723
9.512                0.900943332      118.679523
9.513                0.901073802      118.426956
9.514                 0.90120521      118.175024
9.515                0.901337547      117.923726
9.516                0.901470802      117.673061
9.517                0.901604964       117.42303
9.518                0.901740025      117.173632
9.519                0.901875973      116.924866
9.52                 0.902012799      116.676733
9.521                0.902150492      116.429232
9.522                0.902289042      116.182362
9.523                 0.90242844      115.936124
9.524                0.902568676      115.690517
9.525                0.902709738       115.44554
9.526                0.902851618      115.201193
9.527                0.902994306      114.957475
9.528                0.903137792      114.714387
9.529                0.903282065      114.471926
9.53                 0.903427116      114.230094
9.531                0.903572936      113.988889
9.532                0.903719514      113.748311
9.533                 0.90386684      113.508358
9.534                0.904014906      113.269032
9.535                0.904163701       113.03033
9.536                0.904313216      112.792252
9.537                0.904463441      112.554798
9.538                0.904614367      112.317967
9.539                0.904765984      112.081758
9.54                 0.904918283      111.846171
9.541                0.905071254      111.611204
9.542                0.905224887      111.376857
9.543                0.905379175       111.14313
9.544                0.905534106      110.910021
9.545                0.905689673      110.677529
9.546                0.905845865      110.445655
9.547                0.906002674      110.214396
9.548                 0.90616009      109.983753
9.549                0.906318104      109.753724
9.55                 0.906476708      109.524308
9.551                0.906635891      109.295505
9.552                0.906795646      109.067313
9.553                0.906955964      108.839733
9.554                0.907116834      108.612762
9.555                0.907278249        108.3864
9.556                  0.9074402      108.160646
9.557                0.907602678      107.935499
9.558                0.907765674      107.710958
9.559                 0.90792918      107.487022
9.56                 0.908093187       107.26369
9.561                0.908257686      107.040961
9.562                0.908422669      106.818834
9.563                0.908588128      106.597307
9.564                0.908754054      106.376381
9.565                0.908920438      106.156054
9.566                0.909087273      105.936324
9.567                0.909254549      105.717192
9.568                 0.90942226      105.498654
9.569                0.909590396      105.280712
9.57                 0.909758949      105.063362
9.571                0.909927912      104.846605
9.572                0.910097276      104.630439
9.573                0.910267033      104.414864
9.574                0.910437176      104.199877
9.575                0.910607697      103.985477
9.576                0.910778586      103.771665
9.577                0.910949838      103.558438
9.578                0.911121444      103.345794
9.579                0.911293396      103.133734
9.58                 0.911465687      102.922256
9.581                0.911638309      102.711359
9.582                0.911811255       102.50104
9.583                0.911984517        102.2913
9.584                0.912158088      102.082137
9.585                0.912331959       101.87355
9.586                0.912506125      101.665537
9.587                0.912680577      101.458097
9.588                0.912855309       101.25123
9.589                0.913030313      101.044933
9.59                 0.913205582      100.839205
9.591                0.913381108      100.634045
9.592                0.913556886      100.429453
9.593                0.913732908      100.225426
9.594                0.913909166      100.021963
9.595                0.914085655      99.8190633
9.596                0.914262366      99.6167252
9.597                0.914439294      99.4149474
9.598                0.914616432      99.2137287
9.599                0.914793773      99.0130678
9.6                   0.91497131      98.8129632
9.601                0.915149037      98.6134136