! TOUCHSTONE file generated by CST DESIGN STUDIO
! Date and time: Tue Feb  4 15:52:03 2025
! Project name: C:\Work\MatlabApps\UnitCellOptimizationMatlab\CST\unitcell.cst
! Tree item: Tasks\Sweep1\SPara1\S-Parameters
! Header version: 2024
! Port assignment regex: !\s*Touchstone port\s*([0-9]+)\s*=\s*(CST MWS port|CST DES external port|CST DES block port)\s*(.+)\s* \(\"(.*)\"\)(\s*mode\s*([0-9]+))?.*
! Touchstone port assignment:
! Touchstone port 1 = CST DES external port 1 ("")
# GHz S MA R 50
9                    0.905162197     -88.3445179
9.001                0.904744814      -88.519407
9.002                0.904325791      -88.694824
9.003                0.903905125     -88.8707705
9.004                0.903482815     -89.0472485
9.005                0.903058862     -89.2242595
9.006                0.902633263     -89.4018054
9.007                0.902206018      -89.579888
9.008                0.901777127      -89.758509
9.009                0.901346588     -89.9376701
9.01                 0.900914401     -90.1173732
9.011                0.900480566       -90.29762
9.012                0.900045082     -90.4784123
9.013                 0.89960795     -90.6597518
9.014                0.899169167     -90.8416404
9.015                0.898728735     -91.0240798
9.016                0.898286654     -91.2070719
9.017                0.897842923     -91.3906183
9.018                0.897397542      -91.574721
9.019                0.896950512     -91.7593816
9.02                 0.896501833      -91.944602
9.021                0.896051505     -92.1303839
9.022                0.895599528     -92.3167292
9.023                0.895145904     -92.5036397
9.024                0.894690633     -92.6911171
9.025                0.894233715     -92.8791633
9.026                0.893775152     -93.0677801
9.027                0.893314943     -93.2569692
9.028                0.892853091     -93.4467325
9.029                0.892389597     -93.6370718
9.03                 0.891924461     -93.8279889
9.031                0.891457684     -94.0194856
9.032                0.890989269     -94.2115637
9.033                0.890519217      -94.404225
9.034                0.890047529     -94.5974713
9.035                0.889574207     -94.7913045
9.036                0.889099253     -94.9857263
9.037                0.888622669     -95.1807387
9.038                0.888144456     -95.3763432
9.039                0.887664618     -95.5725419
9.04                 0.887183156     -95.7693365
9.041                0.886700073     -95.9667289
9.042                 0.88621537     -96.1647207
9.043                0.885729052      -96.363314
9.044                 0.88524112     -96.5625104
9.045                0.884751577     -96.7623117
9.046                0.884260427     -96.9627199
9.047                0.883767672     -97.1637367
9.048                0.883273316     -97.3653639
9.049                0.882777362     -97.5676033
9.05                 0.882279813     -97.7704568
9.051                0.881780674     -97.9739261
9.052                0.881279947     -98.1780131
9.053                0.880777636     -98.3827195
9.054                0.880273747     -98.5880472
9.055                0.879768282      -98.793998
9.056                0.879261246     -99.0005737
9.057                0.878752643      -99.207776
9.058                0.878242479     -99.4156068
9.059                0.877730756     -99.6240678
9.06                 0.877217482     -99.8331609
9.061                0.876702659     -100.042888
9.062                0.876186295      -100.25325
9.063                0.875668392      -100.46425
9.064                0.875148958      -100.67589
9.065                0.874627997      -100.88817
9.066                0.874105516     -101.101093
9.067                 0.87358152      -101.31466
9.068                0.873056015     -101.528874
9.069                0.872529007     -101.743736
9.07                 0.872000503     -101.959247
9.071                0.871470508     -102.175411
9.072                 0.87093903     -102.392227
9.073                0.870406076     -102.609699
9.074                0.869871652     -102.827827
9.075                0.869335765     -103.046614
9.076                0.868798423     -103.266062
9.077                0.868259632     -103.486171
9.078                0.867719402     -103.706944
9.079                0.867177739     -103.928382
9.08                 0.866634651     -104.150488
9.081                0.866090147     -104.373263
9.082                0.865544234     -104.596708
9.083                0.864996921     -104.820825
9.084                0.864448218     -105.045617
9.085                0.863898131     -105.271084
9.086                0.863346672     -105.497228
9.087                0.862793848     -105.724051
9.088                0.862239669     -105.951555
9.089                0.861684144     -106.179741
9.09                 0.861127284     -106.408612
9.091                0.860569098     -106.638167
9.092                0.860009596      -106.86841
9.093                0.859448789     -107.099342
9.094                0.858886686     -107.330964
9.095                0.858323299     -107.563278
9.096                0.857758639     -107.796286
9.097                0.857192716     -108.029989
9.098                0.856625542     -108.264389
9.099                0.856057128     -108.499487
9.1                  0.855487486     -108.735284
9.101                0.854916628     -108.971784
9.102                0.854344565     -109.208986
9.103                 0.85377131     -109.446893
9.104                0.853196875     -109.685505
9.105                0.852621273     -109.924825
9.106                0.852044517     -110.164854
9.107                 0.85146662     -110.405594
9.108                0.850887595     -110.647045
9.109                0.850307456      -110.88921
9.11                 0.849726216     -111.132089
9.111                0.849143889     -111.375685
9.112                 0.84856049     -111.619998
9.113                0.847976032      -111.86503
9.114                 0.84739053     -112.110783
9.115                   0.846804     -112.357257
9.116                0.846216455     -112.604454
9.117                0.845627911     -112.852376
9.118                0.845038384     -113.101024
9.119                 0.84444789     -113.350398
9.12                 0.843856443     -113.600501
9.121                0.843264061     -113.851333
9.122                0.842670759     -114.102896
9.123                0.842076554     -114.355192
9.124                0.841481463      -114.60822
9.125                0.840885503     -114.861983
9.126                0.840288691     -115.116482
9.127                0.839691045     -115.371718
9.128                0.839092582     -115.627691
9.129                 0.83849332     -115.884404
9.13                 0.837893277     -116.141857
9.131                0.837292472     -116.400051
9.132                0.836690923     -116.658988
9.133                 0.83608865     -116.918668
9.134                0.835485671     -117.179093
9.135                0.834882005     -117.440263
9.136                0.834277673     -117.702179
9.137                0.833672694     -117.964843
9.138                0.833067088     -118.228256
9.139                0.832460875     -118.492417
9.14                 0.831854076     -118.757329
9.141                0.831246711     -119.022992
9.142                0.830638802     -119.289407
9.143                0.830030371     -119.556575
9.144                0.829421437     -119.824496
9.145                0.828812024     -120.093171
9.146                0.828202152     -120.362601
9.147                0.827591845     -120.632788
9.148                0.826981124      -120.90373
9.149                0.826370013      -121.17543
9.15                 0.825758535     -121.447888
9.151                0.825146711     -121.721104
9.152                0.824534567     -121.995079
9.153                0.823922125     -122.269814
9.154                 0.82330941     -122.545308
9.155                0.822696445     -122.821563
9.156                0.822083255      -123.09858
9.157                0.821469865     -123.376358
9.158                0.820856299     -123.654897
9.159                0.820242583     -123.934199
9.16                 0.819628742     -124.214264
9.161                0.819014801     -124.495092
9.162                0.818400787     -124.776683
9.163                0.817786725     -125.059037
9.164                0.817172641     -125.342155
9.165                0.816558563     -125.626037
9.166                0.815944517     -125.910684
9.167                 0.81533053     -126.196094
9.168                0.814716629     -126.482269
9.169                0.814102842     -126.769208
9.17                 0.813489197     -127.056911
9.171                0.812875721     -127.345379
9.172                0.812262442      -127.63461
9.173                0.811649389     -127.924606
9.174                0.811036591     -128.215367
9.175                0.810424077      -128.50689
9.176                0.809811875     -128.799178
9.177                0.809200015     -129.092229
9.178                0.808588526     -129.386043
9.179                0.807977438      -129.68062
9.18                 0.807366782     -129.975959
9.181                0.806756587      -130.27206
9.182                0.806146884     -130.568923
9.183                0.805537703     -130.866547
9.184                0.804929075     -131.164931
9.185                0.804321032     -131.464076
9.186                0.803713604     -131.763979
9.187                0.803106823     -132.064642
9.188                0.802500721     -132.366062
9.189                0.801895329     -132.668239
9.19                  0.80129068     -132.971173
9.191                0.800686806     -133.274863
9.192                0.800083739     -133.579307
9.193                0.799481512     -133.884504
9.194                0.798880158     -134.190455
9.195                 0.79827971     -134.497157
9.196                0.797680201      -134.80461
9.197                0.797081664     -135.112813
9.198                0.796484134     -135.421763
9.199                0.795887643     -135.731461
9.2                  0.795292227     -136.041905
9.201                0.794697918     -136.353093
9.202                0.794104751     -136.665025
9.203                0.793512761     -136.977698
9.204                0.792921982     -137.291111
9.205                0.792332449     -137.605263
9.206                0.791744197     -137.920153
9.207                0.791157261     -138.235777
9.208                0.790571675     -138.552136
9.209                0.789987476     -138.869227
9.21                 0.789404699     -139.187048
9.211                 0.78882338     -139.505597
9.212                0.788243553     -139.824873
9.213                0.787665256     -140.144874
9.214                0.787088524     -140.465597
9.215                0.786513392     -140.787041
9.216                0.785939898     -141.109203
9.217                0.785368078     -141.432082
9.218                0.784797968     -141.755674
9.219                0.784229605     -142.079978
9.22                 0.783663024     -142.404992
9.221                0.783098264     -142.730712
9.222                 0.78253536     -143.057137
9.223                 0.78197435     -143.384264
9.224                 0.78141527     -143.712091
9.225                0.780858158     -144.040614
9.226                0.780303051     -144.369831
9.227                0.779749985     -144.699739
9.228                0.779198998     -145.030336
9.229                0.778650128     -145.361618
9.23                 0.778103411     -145.693583
9.231                0.777558885     -146.026227
9.232                0.777016587     -146.359548
9.233                0.776476554     -146.693543
9.234                0.775938825     -147.028208
9.235                0.775403436     -147.363539
9.236                0.774870424     -147.699535
9.237                0.774339828      -148.03619
9.238                0.773811685     -148.373503
9.239                0.773286032     -148.711469
9.24                 0.772762907     -149.050085
9.241                0.772242346     -149.389346
9.242                0.771724388     -149.729251
9.243                0.771209069     -150.069794
9.244                0.770696428     -150.410972
9.245                  0.7701865     -150.752781
9.246                0.769679324     -151.095217
9.247                0.769174937     -151.438276
9.248                0.768673375     -151.781954
9.249                0.768174676     -152.126247
9.25                 0.767678877     -152.471151
9.251                0.767186014     -152.816661
9.252                0.766696124     -153.162773
9.253                0.766209244     -153.509483
9.254                 0.76572541     -153.856786
9.255                 0.76524466     -154.204678
9.256                0.764767028     -154.553154
9.257                0.764292552     -154.902209
9.258                0.763821268     -155.251839
9.259                0.763353211      -155.60204
9.26                 0.762888417     -155.952805
9.261                0.762426922      -156.30413
9.262                0.761968762     -156.656011
9.263                0.761513971     -157.008442
9.264                0.761062585     -157.361419
9.265                0.760614638     -157.714935
9.266                0.760170167     -158.068986
9.267                0.759729204     -158.423566
9.268                0.759291785     -158.778671
9.269                0.758857944     -159.134295
9.27                 0.758427714     -159.490431
9.271                0.758001129     -159.847076
9.272                0.757578224     -160.204222
9.273                0.757159031     -160.561866
9.274                0.756743583         -160.92
9.275                0.756331913     -161.278619
9.276                0.755924053     -161.637717
9.277                0.755520036     -161.997288
9.278                0.755119894     -162.357327
9.279                0.754723659     -162.717827
9.28                 0.754331361     -163.078782
9.281                0.753943033     -163.440187
9.282                0.753558704     -163.802034
9.283                0.753178405     -164.164319
9.284                0.752802168     -164.527033
9.285                 0.75243002     -164.890172
9.286                0.752061993     -165.253728
9.287                0.751698115     -165.617695
9.288                0.751338416     -165.982067
9.289                0.750982923     -166.346838
9.29                 0.750631665     -166.711999
9.291                 0.75028467     -167.077546
9.292                0.749941965      -167.44347
9.293                0.749603578     -167.809766
9.294                0.749269535     -168.176426
9.295                0.748939863     -168.543443
9.296                0.748614586     -168.910812
9.297                0.748293732     -169.278523
9.298                0.747977326     -169.646572
9.299                0.747665391      -170.01495
9.3                  0.747357952      -170.38365
9.301                0.747055034     -170.752666
9.302                0.746756659     -171.121989
9.303                0.746462851     -171.491614
9.304                0.746173633     -171.861531
9.305                0.745889026     -172.231735
9.306                0.745609053     -172.602218
9.307                0.745333734     -172.972972
9.308                0.745063091      -173.34399
9.309                0.744797143     -173.715264
9.31                 0.744535912     -174.086787
9.311                0.744279415     -174.458551
9.312                0.744027673     -174.830549
9.313                0.743780704     -175.202773
9.314                0.743538525     -175.575215
9.315                0.743301154     -175.947868
9.316                0.743068609     -176.320723
9.317                0.742840905     -176.693774
9.318                0.742618059     -177.067011
9.319                0.742400086     -177.440429
9.32                 0.742187002     -177.814018
9.321                 0.74197882      -178.18777
9.322                0.741775555     -178.561678
9.323                 0.74157722     -178.935734
9.324                0.741383828      -179.30993
9.325                0.741195392     -179.684258
9.326                0.741011923       179.94129
9.327                0.740833433      179.566723
9.328                0.740659932      179.192048
9.329                0.740491432      178.817273
9.33                 0.740327941      178.442406
9.331                0.740169468      178.067456
9.332                0.740016023       177.69243
9.333                0.739867614      177.317337
9.334                0.739724248      176.942185
9.335                0.739585932      176.566982
9.336                0.739452673      176.191736
9.337                0.739324476      175.816455
9.338                0.739201347      175.441148
9.339                0.739083291      175.065822
9.34                 0.738970312      174.690486
9.341                0.738862414      174.315148
9.342                0.738759599      173.939816
9.343                0.738661871      173.564499
9.344                0.738569232      173.189204
9.345                0.738481683       172.81394
9.346                0.738399225      172.438715
9.347                0.738321858      172.063536
9.348                0.738249583      171.688414
9.349                0.738182398      171.313354
9.35                 0.738120302      170.938367
9.351                0.738063294      170.563459
9.352                 0.73801137      170.188639
9.353                0.737964529      169.813915
9.354                0.737922767      169.439295
9.355                0.737886079      169.064788
9.356                0.737854461      168.690401
9.357                0.737827908      168.316143
9.358                0.737806415      167.942021
9.359                0.737789975      167.568043
9.36                 0.737778581      167.194219
9.361                0.737772226      166.820555
9.362                0.737770902       166.44706
9.363                0.737774602      166.073741
9.364                0.737783315      165.700607
9.365                0.737797033      165.327665
9.366                0.737815747      164.954924
9.367                0.737839444      164.582391
9.368                0.737868115      164.210074
9.369                0.737901749      163.837981
9.37                 0.737940332       163.46612
9.371                0.737983853      163.094498
9.372                0.738032298      162.723123
9.373                0.738085655      162.352003
9.374                0.738143909      161.981146
9.375                0.738207046      161.610558
9.376                0.738275051      161.240249
9.377                0.738347908      160.870224
9.378                0.738425602      160.500493
9.379                0.738508116      160.131061
9.38                 0.738595434      159.761938
9.381                0.738687537      159.393129
9.382                0.738784409      159.024643
9.383                0.738886032      158.656486
9.384                0.738992386      158.288666
9.385                0.739103452      157.921191
9.386                0.739219212      157.554066
9.387                0.739339644      157.187301
9.388                0.739464729      156.820901
9.389                0.739594446      156.454873
9.39                 0.739728774      156.089225
9.391                0.739867691      155.723963
9.392                0.740011175      155.359095
9.393                0.740159203      154.994627
9.394                0.740311754      154.630566
9.395                0.740468803      154.266919
9.396                0.740630327      153.903692
9.397                0.740796302      153.540892
9.398                0.740966705      153.178526
9.399                0.741141509        152.8166
9.4                   0.74132069       152.45512
9.401                0.741504224      152.094093
9.402                0.741692083      151.733526
9.403                0.741884243      151.373424
9.404                0.742080676      151.013795
9.405                0.742281356      150.654643
9.406                0.742486256      150.295975
9.407                0.742695349      149.937798
9.408                0.742908606      149.580116
9.409                0.743126001      149.222937
9.41                 0.743347505      148.866266
9.411                0.743573089      148.510109
9.412                0.743802725      148.154471
9.413                0.744036384      147.799358
9.414                0.744274036      147.444777
9.415                0.744515652      147.090732
9.416                0.744761202      146.737229
9.417                0.745010655      146.384273
9.418                0.745263983       146.03187
9.419                0.745521154      145.680025
9.42                 0.745782137      145.328744
9.421                0.746046902      144.978031
9.422                0.746315418      144.627892
9.423                0.746587652      144.278332
9.424                0.746863574      143.929355
9.425                0.747143152      143.580967
9.426                0.747426354      143.233173
9.427                0.747713148      142.885977
9.428                0.748003502      142.539383
9.429                0.748297383      142.193398
9.43                 0.748594758      141.848025
9.431                0.748895596      141.503269
9.432                0.749199863      141.159134
9.433                0.749507526      140.815626
9.434                0.749818553      140.472747
9.435                0.750132909      140.130502
9.436                0.750450562      139.788896
9.437                0.750771478      139.447933
9.438                0.751095624      139.107617
9.439                0.751422965      138.767951
9.44                 0.751753469       138.42894
9.441                0.752087102      138.090588
9.442                0.752423829      137.752899
9.443                0.752763617      137.415875
9.444                0.753106431      137.079521
9.445                0.753452239      136.743841
9.446                0.753801004      136.408838
9.447                0.754152694      136.074516
9.448                0.754507274      135.740877
9.449                 0.75486471      135.407926
9.45                 0.755224968      135.075665
9.451                0.755588013      134.744098
9.452                0.755953811      134.413229
9.453                0.756322328      134.083059
9.454                 0.75669353      133.753593
9.455                0.757067381      133.424832
9.456                0.757443849      133.096781
9.457                0.757822897      132.769442
9.458                0.758204494      132.442817
9.459                0.758588603       132.11691
9.46                 0.758975191      131.791723
9.461                0.759364224      131.467258
9.462                0.759755667      131.143519
9.463                0.760149487      130.820507
9.464                0.760545649      130.498226
9.465                0.760944119      130.176677
9.466                0.761344863      129.855863
9.467                0.761747848      129.535785
9.468                 0.76215304      129.216447
9.469                0.762560404      128.897851
9.47                 0.762969908      128.579997
9.471                0.763381517       128.26289
9.472                0.763795199      127.946529
9.473                0.764210919      127.630918
9.474                0.764628644      127.316057
9.475                0.765048341       127.00195
9.476                0.765469978      126.688597
9.477                 0.76589352         126.376
9.478                0.766318936      126.064161
9.479                0.766746191      125.753081
9.48                 0.767175255      125.442763
9.481                0.767606093      125.133206
9.482                0.768038673      124.824413
9.483                0.768472964      124.516386
9.484                0.768908933      124.209124
9.485                0.769346548      123.902631
9.486                0.769785777      123.596905
9.487                0.770226588       123.29195
9.488                 0.77066895      122.987766
9.489                0.771112831      122.684354
9.49                   0.7715582      122.381714
9.491                0.772005025      122.079849
9.492                0.772453276      121.778758
9.493                0.772902922      121.478443
9.494                0.773353931      121.178904
9.495                0.773806274      120.880142
9.496                0.774259921      120.582158
9.497                 0.77471484      120.284953
9.498                0.775171001      119.988526
9.499                0.775628376       119.69288
9.5                  0.776086934      119.398013
9.501                0.776546646      119.103926
9.502                0.777007482      118.810621
9.503                0.777469414      118.518097
9.504                0.777932411      118.226355
9.505                0.778396447      117.935395
9.506                0.778861491      117.645216
9.507                0.779327515      117.355821
9.508                0.779794492      117.067207
9.509                0.780262393      116.779377
9.51                  0.78073119      116.492329
9.511                0.781200856      116.206064
9.512                0.781671364      115.920582
9.513                0.782142685      115.635882
9.514                0.782614793      115.351965
9.515                0.783087662      115.068831
9.516                0.783561264      114.786479
9.517                0.784035573      114.504909
9.518                0.784510563      114.224122
9.519                0.784986208      113.944116
9.52                 0.785462481      113.664891
9.521                0.785939358      113.386448
9.522                0.786416813      113.108785
9.523                0.786894821      112.831903
9.524                0.787373357        112.5558
9.525                0.787852395      112.280477
9.526                0.788331912      112.005933
9.527                0.788811883      111.732167
9.528                0.789292284      111.459179
9.529                0.789773091      111.186969
9.53                  0.79025428      110.915535
9.531                0.790735828      110.644877
9.532                0.791217712      110.374994
9.533                0.791699907      110.105885
9.534                0.792182393      109.837551
9.535                0.792665145       109.56999
9.536                0.793148141        109.3032
9.537                 0.79363136      109.037183
9.538                0.794114779      108.771935
9.539                0.794598376      108.507458
9.54                 0.795082131      108.243749
9.541                 0.79556602      107.980808
9.542                0.796050024      107.718634
9.543                0.796534122      107.457225
9.544                0.797018292      107.196582
9.545                0.797502514      106.936702
9.546                0.797986768      106.677586
9.547                0.798471034       106.41923
9.548                0.798955291      106.161636
9.549                0.799439522      105.904801
9.55                 0.799923704      105.648724
9.551                0.800407821      105.393404
9.552                0.800891852      105.138841
9.553                0.801375779      104.885031
9.554                0.801859583      104.631976
9.555                0.802343246      104.379673
9.556                0.802826749       104.12812
9.557                0.803310075      103.877317
9.558                0.803793206      103.627263
9.559                0.804276125      103.377956
9.56                 0.804758813      103.129394
9.561                0.805241254      102.881576
9.562                0.805723432      102.634502
9.563                0.806205328      102.388169
9.564                0.806686927      102.142576
9.565                0.807168213      101.897721
9.566                0.807649169      101.653604
9.567                0.808129779      101.410223
9.568                0.808610027      101.167576
9.569                0.809089899      100.925661
9.57                 0.809569379      100.684478
9.571                0.810048451      100.444024
9.572                0.810527101      100.204298
9.573                0.811005314      99.9652992
9.574                0.811483076      99.7270251
9.575                0.811960371      99.4894745
9.576                0.812437187      99.2526456
9.577                0.812913509      99.0165369
9.578                0.813389323      98.7811468
9.579                0.813864615      98.5464735
9.58                 0.814339373      98.3125156
9.581                0.814813583      98.0792712
9.582                0.815287232      97.8467388
9.583                0.815760308      97.6149166
9.584                0.816232797      97.3838029
9.585                0.816704687      97.1533961
9.586                0.817175966      96.9236945
9.587                0.817646622      96.6946962
9.588                0.818116643      96.4663996
9.589                0.818586016      96.2388029
9.59                 0.819054732      96.0119044
9.591                0.819522777      95.7857023
9.592                0.819990142      95.5601948
9.593                0.820456814      95.3353802
9.594                0.820922784      95.1112566
9.595                 0.82138804      94.8878223
9.596                0.821852571      94.6650755
9.597                0.822316368      94.4430143
9.598                 0.82277942       94.221637
9.599                0.823241718      94.0009416
9.6                  0.823703251      93.7809265
9.601                0.824164009      93.5615896